# vtk DataFile Version 3.0
output
ASCII
DATASET UNSTRUCTURED_GRID
POINTS  2176 FLOAT
-0.100000E+001 -0.100000E+001  0.000000E+000
-0.937500E+000 -0.100000E+001  0.000000E+000
-0.948549E+000 -0.948549E+000  0.000000E+000
-0.889399E+000 -0.949077E+000  0.000000E+000
-0.100000E+001 -0.937500E+000  0.000000E+000
-0.949077E+000 -0.889399E+000  0.000000E+000
-0.875000E+000 -0.100000E+001  0.000000E+000
-0.830225E+000 -0.949578E+000  0.000000E+000
-0.897097E+000 -0.897097E+000  0.000000E+000
-0.841299E+000 -0.898155E+000  0.000000E+000
-0.898155E+000 -0.841299E+000  0.000000E+000
-0.785450E+000 -0.899157E+000  0.000000E+000
-0.100000E+001 -0.875000E+000  0.000000E+000
-0.949578E+000 -0.830225E+000  0.000000E+000
-0.899157E+000 -0.785450E+000  0.000000E+000
-0.812500E+000 -0.100000E+001  0.000000E+000
-0.771027E+000 -0.950050E+000  0.000000E+000
-0.729553E+000 -0.900100E+000  0.000000E+000
-0.845646E+000 -0.845646E+000  0.000000E+000
-0.793198E+000 -0.847232E+000  0.000000E+000
-0.847232E+000 -0.793198E+000  0.000000E+000
-0.740675E+000 -0.848735E+000  0.000000E+000
-0.848735E+000 -0.740675E+000  0.000000E+000
-0.688080E+000 -0.850150E+000  0.000000E+000
-0.100000E+001 -0.812500E+000  0.000000E+000
-0.950050E+000 -0.771027E+000  0.000000E+000
-0.900100E+000 -0.729553E+000  0.000000E+000
-0.850150E+000 -0.688080E+000  0.000000E+000
-0.750000E+000 -0.100000E+001  0.000000E+000
-0.711806E+000 -0.950492E+000  0.000000E+000
-0.673612E+000 -0.900983E+000  0.000000E+000
-0.635417E+000 -0.851475E+000  0.000000E+000
-0.794194E+000 -0.794194E+000  0.000000E+000
-0.745097E+000 -0.796309E+000  0.000000E+000
-0.796309E+000 -0.745097E+000  0.000000E+000
-0.695900E+000 -0.798313E+000  0.000000E+000
-0.798313E+000 -0.695900E+000  0.000000E+000
-0.646606E+000 -0.800200E+000  0.000000E+000
-0.800200E+000 -0.646606E+000  0.000000E+000
-0.597223E+000 -0.801967E+000  0.000000E+000
-0.100000E+001 -0.750000E+000  0.000000E+000
-0.950492E+000 -0.711806E+000  0.000000E+000
-0.900983E+000 -0.673612E+000  0.000000E+000
-0.851475E+000 -0.635417E+000  0.000000E+000
-0.801967E+000 -0.597223E+000  0.000000E+000
-0.687500E+000 -0.100000E+001  0.000000E+000
-0.652564E+000 -0.950902E+000  0.000000E+000
-0.617628E+000 -0.901804E+000  0.000000E+000
-0.582692E+000 -0.852706E+000  0.000000E+000
-0.547756E+000 -0.803608E+000  0.000000E+000
-0.742743E+000 -0.742743E+000  0.000000E+000
-0.696997E+000 -0.745387E+000  0.000000E+000
-0.745387E+000 -0.696997E+000  0.000000E+000
-0.651124E+000 -0.747891E+000  0.000000E+000
-0.747891E+000 -0.651124E+000  0.000000E+000
-0.605133E+000 -0.750251E+000  0.000000E+000
-0.750251E+000 -0.605133E+000  0.000000E+000
-0.559029E+000 -0.752459E+000  0.000000E+000
-0.752459E+000 -0.559029E+000  0.000000E+000
-0.512821E+000 -0.754510E+000  0.000000E+000
-0.100000E+001 -0.687500E+000  0.000000E+000
-0.950902E+000 -0.652564E+000  0.000000E+000
-0.901804E+000 -0.617628E+000  0.000000E+000
-0.852706E+000 -0.582692E+000  0.000000E+000
-0.803608E+000 -0.547756E+000  0.000000E+000
-0.754510E+000 -0.512821E+000  0.000000E+000
-0.625000E+000 -0.100000E+001  0.000000E+000
-0.593303E+000 -0.951280E+000  0.000000E+000
-0.561606E+000 -0.902560E+000  0.000000E+000
-0.529909E+000 -0.853840E+000  0.000000E+000
-0.498212E+000 -0.805120E+000  0.000000E+000
-0.466515E+000 -0.756400E+000  0.000000E+000
-0.691291E+000 -0.691291E+000  0.000000E+000
-0.648896E+000 -0.694464E+000  0.000000E+000
-0.694464E+000 -0.648896E+000  0.000000E+000
-0.606349E+000 -0.697470E+000  0.000000E+000
-0.697470E+000 -0.606349E+000  0.000000E+000
-0.563659E+000 -0.700301E+000  0.000000E+000
-0.700301E+000 -0.563659E+000  0.000000E+000
-0.520835E+000 -0.702950E+000  0.000000E+000
-0.702950E+000 -0.520835E+000  0.000000E+000
-0.477885E+000 -0.705412E+000  0.000000E+000
-0.705412E+000 -0.477885E+000  0.000000E+000
-0.434818E+000 -0.707680E+000  0.000000E+000
-0.100000E+001 -0.625000E+000  0.000000E+000
-0.951280E+000 -0.593303E+000  0.000000E+000
-0.902560E+000 -0.561606E+000  0.000000E+000
-0.853840E+000 -0.529909E+000  0.000000E+000
-0.805120E+000 -0.498212E+000  0.000000E+000
-0.756400E+000 -0.466515E+000  0.000000E+000
-0.707680E+000 -0.434818E+000  0.000000E+000
-0.562500E+000 -0.100000E+001  0.000000E+000
-0.534024E+000 -0.951625E+000  0.000000E+000
-0.505549E+000 -0.903250E+000  0.000000E+000
-0.477073E+000 -0.854874E+000  0.000000E+000
-0.448597E+000 -0.806499E+000  0.000000E+000
-0.420121E+000 -0.758124E+000  0.000000E+000
-0.391646E+000 -0.709749E+000  0.000000E+000
-0.639840E+000 -0.639840E+000  0.000000E+000
-0.600796E+000 -0.643542E+000  0.000000E+000
-0.643542E+000 -0.600796E+000  0.000000E+000
-0.561574E+000 -0.647048E+000  0.000000E+000
-0.647048E+000 -0.561574E+000  0.000000E+000
-0.522186E+000 -0.650351E+000  0.000000E+000
-0.650351E+000 -0.522186E+000  0.000000E+000
-0.482640E+000 -0.653442E+000  0.000000E+000
-0.653442E+000 -0.482640E+000  0.000000E+000
-0.442949E+000 -0.656314E+000  0.000000E+000
-0.656314E+000 -0.442949E+000  0.000000E+000
-0.403122E+000 -0.658960E+000  0.000000E+000
-0.658960E+000 -0.403122E+000  0.000000E+000
-0.363170E+000 -0.661374E+000  0.000000E+000
-0.100000E+001 -0.562500E+000  0.000000E+000
-0.951625E+000 -0.534024E+000  0.000000E+000
-0.903250E+000 -0.505549E+000  0.000000E+000
-0.854874E+000 -0.477073E+000  0.000000E+000
-0.806499E+000 -0.448597E+000  0.000000E+000
-0.758124E+000 -0.420121E+000  0.000000E+000
-0.709749E+000 -0.391646E+000  0.000000E+000
-0.661374E+000 -0.363170E+000  0.000000E+000
-0.500000E+000 -0.100000E+001  0.000000E+000
-0.474729E+000 -0.951936E+000  0.000000E+000
-0.449459E+000 -0.903871E+000  0.000000E+000
-0.424188E+000 -0.855807E+000  0.000000E+000
-0.398918E+000 -0.807742E+000  0.000000E+000
-0.373647E+000 -0.759678E+000  0.000000E+000
-0.348377E+000 -0.711614E+000  0.000000E+000
-0.323106E+000 -0.663549E+000  0.000000E+000
-0.588388E+000 -0.588388E+000  0.000000E+000
-0.552695E+000 -0.592619E+000  0.000000E+000
-0.592619E+000 -0.552695E+000  0.000000E+000
-0.516799E+000 -0.596626E+000  0.000000E+000
-0.596626E+000 -0.516799E+000  0.000000E+000
-0.480712E+000 -0.600401E+000  0.000000E+000
-0.600401E+000 -0.480712E+000  0.000000E+000
-0.444446E+000 -0.603934E+000  0.000000E+000
-0.603934E+000 -0.444446E+000  0.000000E+000
-0.408013E+000 -0.607216E+000  0.000000E+000
-0.607216E+000 -0.408013E+000  0.000000E+000
-0.371425E+000 -0.610240E+000  0.000000E+000
-0.610240E+000 -0.371425E+000  0.000000E+000
-0.334694E+000 -0.612999E+000  0.000000E+000
-0.612999E+000 -0.334694E+000  0.000000E+000
-0.297835E+000 -0.615485E+000  0.000000E+000
-0.100000E+001 -0.500000E+000  0.000000E+000
-0.951936E+000 -0.474729E+000  0.000000E+000
-0.903871E+000 -0.449459E+000  0.000000E+000
-0.855807E+000 -0.424188E+000  0.000000E+000
-0.807742E+000 -0.398918E+000  0.000000E+000
-0.759678E+000 -0.373647E+000  0.000000E+000
-0.711614E+000 -0.348377E+000  0.000000E+000
-0.663549E+000 -0.323106E+000  0.000000E+000
-0.615485E+000 -0.297835E+000  0.000000E+000
-0.437500E+000 -0.100000E+001  0.000000E+000
-0.415420E+000 -0.952212E+000  0.000000E+000
-0.393340E+000 -0.904423E+000  0.000000E+000
-0.371260E+000 -0.856635E+000  0.000000E+000
-0.349181E+000 -0.808847E+000  0.000000E+000
-0.327101E+000 -0.761058E+000  0.000000E+000
-0.305021E+000 -0.713270E+000  0.000000E+000
-0.282941E+000 -0.665481E+000  0.000000E+000
-0.260861E+000 -0.617693E+000  0.000000E+000
-0.536937E+000 -0.536937E+000  0.000000E+000
-0.504594E+000 -0.541696E+000  0.000000E+000
-0.541696E+000 -0.504594E+000  0.000000E+000
-0.472024E+000 -0.546205E+000  0.000000E+000
-0.546205E+000 -0.472024E+000  0.000000E+000
-0.439239E+000 -0.550451E+000  0.000000E+000
-0.550451E+000 -0.439239E+000  0.000000E+000
-0.406252E+000 -0.554425E+000  0.000000E+000
-0.554425E+000 -0.406252E+000  0.000000E+000
-0.373077E+000 -0.558118E+000  0.000000E+000
-0.558118E+000 -0.373077E+000  0.000000E+000
-0.339728E+000 -0.561520E+000  0.000000E+000
-0.561520E+000 -0.339728E+000  0.000000E+000
-0.306219E+000 -0.564623E+000  0.000000E+000
-0.564623E+000 -0.306219E+000  0.000000E+000
-0.272565E+000 -0.567421E+000  0.000000E+000
-0.567421E+000 -0.272565E+000  0.000000E+000
-0.238781E+000 -0.569905E+000  0.000000E+000
-0.100000E+001 -0.437500E+000  0.000000E+000
-0.952212E+000 -0.415420E+000  0.000000E+000
-0.904423E+000 -0.393340E+000  0.000000E+000
-0.856635E+000 -0.371260E+000  0.000000E+000
-0.808847E+000 -0.349181E+000  0.000000E+000
-0.761058E+000 -0.327101E+000  0.000000E+000
-0.713270E+000 -0.305021E+000  0.000000E+000
-0.665481E+000 -0.282941E+000  0.000000E+000
-0.617693E+000 -0.260861E+000  0.000000E+000
-0.569905E+000 -0.238781E+000  0.000000E+000
-0.375000E+000 -0.100000E+001  0.000000E+000
-0.356098E+000 -0.952452E+000  0.000000E+000
-0.337196E+000 -0.904904E+000  0.000000E+000
-0.318295E+000 -0.857357E+000  0.000000E+000
-0.299393E+000 -0.809809E+000  0.000000E+000
-0.280491E+000 -0.762261E+000  0.000000E+000
-0.261589E+000 -0.714713E+000  0.000000E+000
-0.242687E+000 -0.667165E+000  0.000000E+000
-0.223786E+000 -0.619618E+000  0.000000E+000
-0.204884E+000 -0.572070E+000  0.000000E+000
-0.485485E+000 -0.485485E+000  0.000000E+000
-0.456494E+000 -0.490774E+000  0.000000E+000
-0.490774E+000 -0.456494E+000  0.000000E+000
-0.427249E+000 -0.495783E+000  0.000000E+000
-0.495783E+000 -0.427249E+000  0.000000E+000
-0.397766E+000 -0.500501E+000  0.000000E+000
-0.500501E+000 -0.397766E+000  0.000000E+000
-0.368058E+000 -0.504917E+000  0.000000E+000
-0.504917E+000 -0.368058E+000  0.000000E+000
-0.338141E+000 -0.509020E+000  0.000000E+000
-0.509020E+000 -0.338141E+000  0.000000E+000
-0.308031E+000 -0.512800E+000  0.000000E+000
-0.512800E+000 -0.308031E+000  0.000000E+000
-0.277743E+000 -0.516248E+000  0.000000E+000
-0.516248E+000 -0.277743E+000  0.000000E+000
-0.247294E+000 -0.519356E+000  0.000000E+000
-0.519356E+000 -0.247294E+000  0.000000E+000
-0.216702E+000 -0.522116E+000  0.000000E+000
-0.522116E+000 -0.216702E+000  0.000000E+000
-0.185982E+000 -0.524522E+000  0.000000E+000
[...]
POINT_DATA  2176
SCALARS displacement FLOAT     3
LOOKUP_TABLE default
-0.326620E-004  0.133301E-004  0.000000E+000
-0.306124E-004  0.134169E-004  0.000000E+000
-0.311197E-004  0.126341E-004  0.000000E+000
-0.291698E-004  0.127331E-004  0.000000E+000
-0.328390E-004  0.124041E-004  0.000000E+000
-0.313234E-004  0.117484E-004  0.000000E+000
-0.285533E-004  0.135209E-004  0.000000E+000
-0.272092E-004  0.128498E-004  0.000000E+000
-0.295863E-004  0.119379E-004  0.000000E+000
-0.277352E-004  0.120498E-004  0.000000E+000
-0.298175E-004  0.110920E-004  0.000000E+000
-0.258722E-004  0.121799E-004  0.000000E+000
-0.330387E-004  0.114752E-004  0.000000E+000
-0.315497E-004  0.108595E-004  0.000000E+000
-0.300717E-004  0.102426E-004  0.000000E+000
-0.264855E-004  0.136437E-004  0.000000E+000
-0.252388E-004  0.129859E-004  0.000000E+000
-0.239984E-004  0.123300E-004  0.000000E+000
-0.280632E-004  0.112416E-004  0.000000E+000
-0.263100E-004  0.113672E-004  0.000000E+000
-0.283234E-004  0.104350E-004  0.000000E+000
-0.245438E-004  0.115117E-004  0.000000E+000
-0.286069E-004  0.962458E-005  0.000000E+000
-0.227658E-004  0.116768E-004  0.000000E+000
-0.332624E-004  0.105453E-004  0.000000E+000
-0.318001E-004  0.996942E-005  0.000000E+000
-0.303502E-004  0.939198E-005  0.000000E+000
-0.289149E-004  0.881295E-005  0.000000E+000
-0.244102E-004  0.137868E-004  0.000000E+000
-0.232600E-004  0.131426E-004  0.000000E+000
-0.221155E-004  0.125013E-004  0.000000E+000
-0.209779E-004  0.118636E-004  0.000000E+000
-0.265527E-004  0.105454E-004  0.000000E+000
-0.248964E-004  0.106857E-004  0.000000E+000
-0.268435E-004  0.977737E-005  0.000000E+000
-0.232259E-004  0.108457E-004  0.000000E+000
-0.271580E-004  0.900548E-005  0.000000E+000
-0.215427E-004  0.110269E-004  0.000000E+000
-0.274975E-004  0.823241E-005  0.000000E+000
-0.198489E-004  0.112305E-004  0.000000E+000
-0.335110E-004  0.961713E-005  0.000000E+000
-0.320754E-004  0.908110E-005  0.000000E+000
-0.306536E-004  0.854317E-005  0.000000E+000
-0.292480E-004  0.800335E-005  0.000000E+000
-0.278621E-004  0.746163E-005  0.000000E+000
-0.223297E-004  0.139507E-004  0.000000E+000
-0.212753E-004  0.133206E-004  0.000000E+000
-0.202259E-004  0.126942E-004  0.000000E+000
-0.191827E-004  0.120725E-004  0.000000E+000
-0.181472E-004  0.114566E-004  0.000000E+000
-0.250577E-004  0.984967E-005  0.000000E+000
-0.234970E-004  0.100059E-004  0.000000E+000
-0.253811E-004  0.911957E-005  0.000000E+000
-0.219211E-004  0.101826E-004  0.000000E+000
-0.257287E-004  0.838554E-005  0.000000E+000
-0.203316E-004  0.103814E-004  0.000000E+000
-0.261017E-004  0.765047E-005  0.000000E+000
-0.187306E-004  0.106031E-004  0.000000E+000
-0.265002E-004  0.691819E-005  0.000000E+000
-0.171214E-004  0.108479E-004  0.000000E+000
-0.337843E-004  0.869416E-005  0.000000E+000
-0.323754E-004  0.819815E-005  0.000000E+000
-0.309815E-004  0.770004E-005  0.000000E+000
-0.296056E-004  0.719982E-005  0.000000E+000
-0.282513E-004  0.669751E-005  0.000000E+000
-0.269230E-004  0.619319E-005  0.000000E+000
-0.202467E-004  0.141353E-004  0.000000E+000
-0.192875E-004  0.135193E-004  0.000000E+000
-0.183328E-004  0.129082E-004  0.000000E+000
-0.173836E-004  0.123028E-004  0.000000E+000
-0.164413E-004  0.117044E-004  0.000000E+000
-0.155078E-004  0.111145E-004  0.000000E+000
-0.235821E-004  0.915510E-005  0.000000E+000
-0.221155E-004  0.932871E-005  0.000000E+000
-0.239404E-004  0.846206E-005  0.000000E+000
-0.206327E-004  0.952370E-005  0.000000E+000
-0.243237E-004  0.776509E-005  0.000000E+000
-0.191353E-004  0.974149E-005  0.000000E+000
-0.247329E-004  0.706753E-005  0.000000E+000
-0.176260E-004  0.998310E-005  0.000000E+000
-0.251676E-004  0.637319E-005  0.000000E+000
-0.161080E-004  0.102481E-004  0.000000E+000
-0.256268E-004  0.568711E-005  0.000000E+000
-0.145854E-004  0.105353E-004  0.000000E+000
-0.340810E-004  0.778056E-005  0.000000E+000
-0.326984E-004  0.732498E-005  0.000000E+000
-0.313323E-004  0.686720E-005  0.000000E+000
-0.299857E-004  0.640725E-005  0.000000E+000
-0.286625E-004  0.594510E-005  0.000000E+000
-0.273676E-004  0.548086E-005  0.000000E+000
-0.261070E-004  0.501478E-005  0.000000E+000
-0.181646E-004  0.143387E-004  0.000000E+000
-0.173004E-004  0.137372E-004  0.000000E+000
-0.164401E-004  0.131413E-004  0.000000E+000
-0.155847E-004  0.125522E-004  0.000000E+000
-0.147356E-004  0.119713E-004  0.000000E+000
-0.138942E-004  0.114003E-004  0.000000E+000
-0.130630E-004  0.108412E-004  0.000000E+000
-0.221312E-004  0.846266E-005  0.000000E+000
-0.207570E-004  0.865536E-005  0.000000E+000
-0.225275E-004  0.780559E-005  0.000000E+000
-0.193653E-004  0.887044E-005  0.000000E+000
-0.229496E-004  0.714497E-005  0.000000E+000
-0.179585E-004  0.910940E-005  0.000000E+000
-0.233978E-004  0.648399E-005  0.000000E+000
-0.165390E-004  0.937255E-005  0.000000E+000
-0.238721E-004  0.582730E-005  0.000000E+000
-0.151107E-004  0.965990E-005  0.000000E+000
-0.243704E-004  0.517983E-005  0.000000E+000
-0.136777E-004  0.996918E-005  0.000000E+000
-0.248890E-004  0.454742E-005  0.000000E+000
-0.122452E-004  0.102969E-004  0.000000E+000
-0.343980E-004  0.688119E-005  0.000000E+000
-0.330411E-004  0.646664E-005  0.000000E+000
-0.317021E-004  0.604994E-005  0.000000E+000
-0.303842E-004  0.563110E-005  0.000000E+000
-0.290914E-004  0.521013E-005  0.000000E+000
-0.278289E-004  0.478712E-005  0.000000E+000
-0.266030E-004  0.436233E-005  0.000000E+000
-0.254221E-004  0.393643E-005  0.000000E+000
-0.160875E-004  0.145578E-004  0.000000E+000
-0.153182E-004  0.139704E-004  0.000000E+000
-0.145523E-004  0.133896E-004  0.000000E+000
-0.137908E-004  0.128166E-004  0.000000E+000
-0.130348E-004  0.122528E-004  0.000000E+000
-0.122858E-004  0.117001E-004  0.000000E+000
-0.115460E-004  0.111606E-004  0.000000E+000
-0.108183E-004  0.106372E-004  0.000000E+000
-0.207125E-004  0.777385E-005  0.000000E+000
-0.194281E-004  0.798784E-005  0.000000E+000
-0.211505E-004  0.715168E-005  0.000000E+000
-0.181255E-004  0.822542E-005  0.000000E+000
-0.216148E-004  0.652605E-005  0.000000E+000
-0.168067E-004  0.848745E-005  0.000000E+000
-0.221062E-004  0.590130E-005  0.000000E+000
-0.154753E-004  0.877495E-005  0.000000E+000
-0.226233E-004  0.528158E-005  0.000000E+000
-0.141347E-004  0.908637E-005  0.000000E+000
-0.231641E-004  0.467246E-005  0.000000E+000
-0.127897E-004  0.941986E-005  0.000000E+000
-0.237243E-004  0.408010E-005  0.000000E+000
-0.114454E-004  0.977102E-005  0.000000E+000
-0.242971E-004  0.351082E-005  0.000000E+000
-0.101071E-004  0.101335E-004  0.000000E+000
-0.347302E-004  0.600129E-005  0.000000E+000
-0.333980E-004  0.562857E-005  0.000000E+000
-0.320851E-004  0.525388E-005  0.000000E+000
-0.307947E-004  0.487723E-005  0.000000E+000
-0.295312E-004  0.449861E-005  0.000000E+000
-0.282997E-004  0.411812E-005  0.000000E+000
-0.271068E-004  0.373608E-005  0.000000E+000
-0.259610E-004  0.335322E-005  0.000000E+000
-0.248732E-004  0.297103E-005  0.000000E+000
-0.140198E-004  0.147871E-004  0.000000E+000
-0.133453E-004  0.142134E-004  0.000000E+000
-0.126740E-004  0.136472E-004  0.000000E+000
-0.120065E-004  0.130896E-004  0.000000E+000
-0.113440E-004  0.125423E-004  0.000000E+000
-0.106877E-004  0.120070E-004  0.000000E+000
-0.100396E-004  0.114859E-004  0.000000E+000
-0.940243E-005  0.109820E-004  0.000000E+000
-0.878026E-005  0.104986E-004  0.000000E+000
-0.193368E-004  0.709138E-005  0.000000E+000
-0.181393E-004  0.732935E-005  0.000000E+000
-0.198209E-004  0.650231E-005  0.000000E+000
-0.169223E-004  0.759187E-005  0.000000E+000
-0.203325E-004  0.591124E-005  0.000000E+000
-0.156895E-004  0.788055E-005  0.000000E+000
-0.208708E-004  0.532133E-005  0.000000E+000
-0.144431E-004  0.819417E-005  0.000000E+000
-0.214353E-004  0.473823E-005  0.000000E+000
-0.131881E-004  0.853253E-005  0.000000E+000
-0.220227E-004  0.416758E-005  0.000000E+000
-0.119289E-004  0.889218E-005  0.000000E+000
-0.226276E-004  0.361539E-005  0.000000E+000
-0.106708E-004  0.926835E-005  0.000000E+000
-0.232428E-004  0.308822E-005  0.000000E+000
-0.941923E-005  0.965404E-005  0.000000E+000
-0.238582E-004  0.259243E-005  0.000000E+000
-0.817938E-005  0.100400E-004  0.000000E+000
-0.350697E-004  0.514610E-005  0.000000E+000
-0.337610E-004  0.481618E-005  0.000000E+000
-0.324727E-004  0.448460E-005  0.000000E+000
-0.312084E-004  0.415133E-005  0.000000E+000
-0.299724E-004  0.381635E-005  0.000000E+000
-0.287700E-004  0.347977E-005  0.000000E+000
-0.276078E-004  0.314195E-005  0.000000E+000
-0.264943E-004  0.280368E-005  0.000000E+000
-0.254405E-004  0.246656E-005  0.000000E+000
-0.244608E-004  0.213360E-005  0.000000E+000
-0.119655E-004  0.150192E-004  0.000000E+000
-0.113862E-004  0.144585E-004  0.000000E+000
-0.108097E-004  0.139059E-004  0.000000E+000
-0.102366E-004  0.133628E-004  0.000000E+000
-0.966788E-005  0.128306E-004  0.000000E+000
-0.910462E-005  0.123114E-004  0.000000E+000
-0.854859E-005  0.118072E-004  0.000000E+000
-0.800227E-005  0.113208E-004  0.000000E+000
-0.746940E-005  0.108554E-004  0.000000E+000
-0.695566E-005  0.104148E-004  0.000000E+000
-0.180204E-004  0.641959E-005  0.000000E+000
-0.169052E-004  0.668498E-005  0.000000E+000
-0.185565E-004  0.586278E-005  0.000000E+000
-0.157711E-004  0.697669E-005  0.000000E+000
-0.191201E-004  0.530375E-005  0.000000E+000
-0.146196E-004  0.729377E-005  0.000000E+000
-0.197117E-004  0.474872E-005  0.000000E+000
-0.134557E-004  0.763775E-005  0.000000E+000
-0.203283E-004  0.420221E-005  0.000000E+000
-0.122832E-004  0.800521E-005  0.000000E+000
-0.209660E-004  0.366986E-005  0.000000E+000
-0.111070E-004  0.839299E-005  0.000000E+000
-0.216193E-004  0.315832E-005  0.000000E+000
-0.993264E-005  0.879548E-005  0.000000E+000
-0.222796E-004  0.267405E-005  0.000000E+000
-0.876523E-005  0.920496E-005  0.000000E+000
-0.229358E-004  0.222306E-005  0.000000E+000
-0.760971E-005  0.961155E-005  0.000000E+000
-0.235743E-004  0.181046E-005  0.000000E+000
-0.647015E-005  0.100035E-004  0.000000E+000
-0.354065E-004  0.432026E-005  0.000000E+000
-0.341195E-004  0.403428E-005  0.000000E+000
-0.328540E-004  0.374701E-005  0.000000E+000
-0.316136E-004  0.345837E-005  0.000000E+000
-0.304028E-004  0.316835E-005  0.000000E+000
-0.292268E-004  0.287705E-005  0.000000E+000
-0.280924E-004  0.258487E-005  0.000000E+000
-0.270080E-004  0.229264E-005  0.000000E+000
-0.259843E-004  0.200198E-005  0.000000E+000
-0.250353E-004  0.171589E-005  0.000000E+000
-0.241794E-004  0.143990E-005  0.000000E+000
-0.992824E-005  0.152445E-004  0.000000E+000
-0.944445E-005  0.146956E-004  0.000000E+000
-0.896315E-005  0.141554E-004  0.000000E+000
-0.848483E-005  0.136253E-004  0.000000E+000
-0.801022E-005  0.131068E-004  0.000000E+000
-0.754035E-005  0.126018E-004  0.000000E+000
-0.707671E-005  0.121125E-004  0.000000E+000
-0.662150E-005  0.116413E-004  0.000000E+000
-0.617801E-005  0.111912E-004  0.000000E+000
-0.575128E-005  0.107655E-004  0.000000E+000
-0.534932E-005  0.103678E-004  0.000000E+000
-0.167884E-004  0.576747E-005  0.000000E+000
-0.157513E-004  0.606468E-005  0.000000E+000
-0.173835E-004  0.523951E-005  0.000000E+000
-0.146933E-004  0.638780E-005  0.000000E+000
-0.180076E-004  0.471383E-005  0.000000E+000
-0.136200E-004  0.673967E-005  0.000000E+000
-0.186576E-004  0.419256E-005  0.000000E+000
-0.125341E-004  0.711574E-005  0.000000E+000
-0.193314E-004  0.368203E-005  0.000000E+000
-0.114403E-004  0.751485E-005  0.000000E+000
-0.200245E-004  0.318889E-005  0.000000E+000
-0.103438E-004  0.793228E-005  0.000000E+000
-0.207294E-004  0.271923E-005  0.000000E+000
-0.924968E-005  0.836149E-005  0.000000E+000
-0.214364E-004  0.227900E-005  0.000000E+000
-0.816287E-005  0.879401E-005  0.000000E+000
-0.221336E-004  0.187371E-005  0.000000E+000
-0.708777E-005  0.921948E-005  0.000000E+000
-0.228070E-004  0.150783E-005  0.000000E+000
-0.602787E-005  0.962599E-005  0.000000E+000
-0.234404E-004  0.118425E-005  0.000000E+000
-0.498533E-005  0.100005E-004  0.000000E+000
-0.357280E-004  0.352715E-005  0.000000E+000
-0.344604E-004  0.328629E-005  0.000000E+000
-0.332152E-004  0.304456E-005  0.000000E+000
-0.319962E-004  0.280181E-005  0.000000E+000
-0.308077E-004  0.255801E-005  0.000000E+000
-0.296551E-004  0.231327E-005  0.000000E+000
-0.285450E-004  0.206799E-005  0.000000E+000
-0.274858E-004  0.182301E-005  0.000000E+000
-0.264878E-004  0.157988E-005  0.000000E+000
-0.255647E-004  0.134148E-005  0.000000E+000
-0.247336E-004  0.111294E-005  0.000000E+000
-0.240165E-004  0.903677E-006  0.000000E+000
-0.791007E-005  0.154520E-004  0.000000E+000
-0.752223E-005  0.149133E-004  0.000000E+000
-0.713655E-005  0.143838E-004  0.000000E+000
-0.675337E-005  0.138650E-004  0.000000E+000
-0.637326E-005  0.133582E-004  0.000000E+000
-0.599707E-005  0.128654E-004  0.000000E+000
-0.562606E-005  0.123884E-004  0.000000E+000
-0.526206E-005  0.119298E-004  0.000000E+000
-0.490785E-005  0.114922E-004  0.000000E+000
-0.456770E-005  0.110783E-004  0.000000E+000
-0.424833E-005  0.106905E-004  0.000000E+000
-0.396080E-005  0.103299E-004  0.000000E+000
-0.156846E-004  0.515089E-005  0.000000E+000
-0.147163E-004  0.548429E-005  0.000000E+000
-0.163481E-004  0.465380E-005  0.000000E+000
-0.137304E-004  0.584758E-005  0.000000E+000
-0.170385E-004  0.415679E-005  0.000000E+000
-0.127283E-004  0.623410E-005  0.000000E+000
-0.177549E-004  0.366974E-005  0.000000E+000
-0.117150E-004  0.664605E-005  0.000000E+000
-0.184926E-004  0.319762E-005  0.000000E+000
-0.106952E-004  0.707820E-005  0.000000E+000
-0.192441E-004  0.274554E-005  0.000000E+000
-0.967352E-005  0.752493E-005  0.000000E+000
-0.200015E-004  0.231922E-005  0.000000E+000
-0.865472E-005  0.797887E-005  0.000000E+000
-0.207545E-004  0.192429E-005  0.000000E+000
-0.764313E-005  0.843089E-005  0.000000E+000
-0.214902E-004  0.156556E-005  0.000000E+000
-0.664233E-005  0.887030E-005  0.000000E+000
-0.221941E-004  0.124646E-005  0.000000E+000
-0.565488E-005  0.928531E-005  0.000000E+000
-0.228500E-004  0.968589E-006  0.000000E+000
-0.468211E-005  0.966360E-005  0.000000E+000
-0.234413E-004  0.731522E-006  0.000000E+000
-0.372407E-005  0.999306E-005  0.000000E+000
-0.360199E-004  0.276808E-005  0.000000E+000
-0.347690E-004  0.257356E-005  0.000000E+000
-0.335413E-004  0.237854E-005  0.000000E+000
-0.323405E-004  0.218283E-005  0.000000E+000
-0.311710E-004  0.198637E-005  0.000000E+000
-0.300382E-004  0.178929E-005  0.000000E+000
-0.289484E-004  0.159196E-005  0.000000E+000
-0.279101E-004  0.139515E-005  0.000000E+000
-0.269332E-004  0.120029E-005  0.000000E+000
-0.260308E-004  0.100991E-005  0.000000E+000
-0.252190E-004  0.828551E-006  0.000000E+000
-0.245179E-004  0.664394E-006  0.000000E+000
-0.239517E-004  0.532670E-006  0.000000E+000
-0.591122E-005  0.156297E-004  0.000000E+000
-0.561981E-005  0.150994E-004  0.000000E+000
-0.533015E-005  0.145787E-004  0.000000E+000
-0.504245E-005  0.140690E-004  0.000000E+000
-0.475713E-005  0.135717E-004  0.000000E+000
-0.447485E-005  0.130885E-004  0.000000E+000
-0.419658E-005  0.126214E-004  0.000000E+000
-0.392377E-005  0.121726E-004  0.000000E+000
-0.365858E-005  0.117444E-004  0.000000E+000
-0.340437E-005  0.113392E-004  0.000000E+000
-0.316639E-005  0.109584E-004  0.000000E+000
-0.295324E-005  0.106015E-004  0.000000E+000
-0.277957E-005  0.102625E-004  0.000000E+000
-0.147851E-004  0.460766E-005  0.000000E+000
-0.138793E-004  0.498573E-005  0.000000E+000
-0.155280E-004  0.413429E-005  0.000000E+000
-0.129547E-004  0.538489E-005  0.000000E+000
-0.162964E-004  0.367417E-005  0.000000E+000
-0.120161E-004  0.581262E-005  0.000000E+000
-0.170851E-004  0.322481E-005  0.000000E+000
-0.110680E-004  0.626002E-005  0.000000E+000
-0.178871E-004  0.279227E-005  0.000000E+000
-0.101147E-004  0.672262E-005  0.000000E+000
-0.186964E-004  0.238278E-005  0.000000E+000
-0.916061E-005  0.719365E-005  0.000000E+000
-0.195035E-004  0.200200E-005  0.000000E+000
-0.820943E-005  0.766479E-005  0.000000E+000
-0.202964E-004  0.165436E-005  0.000000E+000
-0.726420E-005  0.812637E-005  0.000000E+000
-0.210613E-004  0.134288E-005  0.000000E+000
-0.632704E-005  0.856786E-005  0.000000E+000
-0.217836E-004  0.106897E-005  0.000000E+000
-0.539920E-005  0.897841E-005  0.000000E+000
-0.224482E-004  0.832414E-006  0.000000E+000
-0.448102E-005  0.934736E-005  0.000000E+000
-0.230405E-004  0.631400E-006  0.000000E+000
-0.357207E-005  0.966469E-005  0.000000E+000
-0.235464E-004  0.462590E-006  0.000000E+000
-0.267128E-005  0.992152E-005  0.000000E+000
-0.362673E-004  0.204167E-005  0.000000E+000
-0.350299E-004  0.189462E-005  0.000000E+000
-0.338164E-004  0.174735E-005  0.000000E+000
-0.326303E-004  0.159967E-005  0.000000E+000
-0.314760E-004  0.145150E-005  0.000000E+000
-0.303588E-004  0.130296E-005  0.000000E+000
-0.292852E-004  0.115436E-005  0.000000E+000
-0.282632E-004  0.100636E-005  0.000000E+000
-0.273026E-004  0.860133E-006  0.000000E+000
-0.264159E-004  0.717761E-006  0.000000E+000
-0.256182E-004  0.582902E-006  0.000000E+000
-0.249280E-004  0.462102E-006  0.000000E+000
-0.243663E-004  0.367363E-006  0.000000E+000
-0.239538E-004  0.321292E-006  0.000000E+000
-0.392972E-005  0.157665E-004  0.000000E+000
-0.373517E-005  0.152424E-004  0.000000E+000
-0.354186E-005  0.147282E-004  0.000000E+000
-0.334991E-005  0.142251E-004  0.000000E+000
-0.315959E-005  0.137347E-004  0.000000E+000
-0.297135E-005  0.132585E-004  0.000000E+000
-0.278585E-005  0.127985E-004  0.000000E+000
-0.260410E-005  0.123567E-004  0.000000E+000
-0.242760E-005  0.119351E-004  0.000000E+000
-0.225863E-005  0.115358E-004  0.000000E+000
-0.210082E-005  0.111594E-004  0.000000E+000
-0.196006E-005  0.108043E-004  0.000000E+000
-0.184631E-005  0.104624E-004  0.000000E+000
-0.177703E-005  0.101105E-004  0.000000E+000
-0.142544E-004  0.422216E-005  0.000000E+000
-0.133935E-004  0.463605E-005  0.000000E+000
-0.150821E-004  0.379054E-005  0.000000E+000
-0.125160E-004  0.508310E-005  0.000000E+000
-0.159285E-004  0.335996E-005  0.000000E+000
-0.116290E-004  0.554408E-005  0.000000E+000
-0.167862E-004  0.294862E-005  0.000000E+000
-0.107355E-004  0.601795E-005  0.000000E+000
-0.176500E-004  0.256123E-005  0.000000E+000
-0.983859E-005  0.649737E-005  0.000000E+000
-0.185082E-004  0.220151E-005  0.000000E+000
-0.894024E-005  0.697421E-005  0.000000E+000
-0.193486E-004  0.187175E-005  0.000000E+000
-0.804199E-005  0.743972E-005  0.000000E+000
-0.201584E-004  0.157306E-005  0.000000E+000
-0.714471E-005  0.788500E-005  0.000000E+000
-0.209249E-004  0.130541E-005  0.000000E+000
-0.624878E-005  0.830135E-005  0.000000E+000
-0.216356E-004  0.106777E-005  0.000000E+000
-0.535421E-005  0.868054E-005  0.000000E+000
-0.222786E-004  0.858194E-006  0.000000E+000
-0.446077E-005  0.901502E-005  0.000000E+000
-0.228430E-004  0.673963E-006  0.000000E+000
-0.356812E-005  0.929817E-005  0.000000E+000
-0.233190E-004  0.511700E-006  0.000000E+000
-0.267593E-005  0.952436E-005  0.000000E+000
-0.236982E-004  0.367530E-006  0.000000E+000
-0.178393E-005  0.968916E-005  0.000000E+000
-0.364562E-004  0.134351E-005  0.000000E+000
-0.352287E-004  0.124489E-005  0.000000E+000
-0.340255E-004  0.114621E-005  0.000000E+000
-0.328502E-004  0.104732E-005  0.000000E+000
-0.317070E-004  0.948156E-006  0.000000E+000
-0.306012E-004  0.848791E-006  0.000000E+000
-0.295392E-004  0.749465E-006  0.000000E+000
-0.285288E-004  0.650647E-006  0.000000E+000
-0.275798E-004  0.553185E-006  0.000000E+000
-0.267040E-004  0.458552E-006  0.000000E+000
-0.259158E-004  0.369325E-006  0.000000E+000
-0.252323E-004  0.290066E-006  0.000000E+000
-0.246724E-004  0.229053E-006  0.000000E+000
-0.242526E-004  0.201676E-006  0.000000E+000
-0.239740E-004  0.237211E-006  0.000000E+000
-0.196133E-005  0.158528E-004  0.000000E+000
-0.186396E-005  0.153325E-004  0.000000E+000
-0.176724E-005  0.148223E-004  0.000000E+000
-0.167122E-005  0.143233E-004  0.000000E+000
-0.157604E-005  0.138371E-004  0.000000E+000
-0.148190E-005  0.133652E-004  0.000000E+000
-0.138917E-005  0.129094E-004  0.000000E+000