# vtk DataFile Version 3.0
output
ASCII
DATASET UNSTRUCTURED_GRID
POINTS   576 FLOAT
-0.100000E+001 -0.100000E+001  0.000000E+000
-0.875000E+000 -0.100000E+001  0.000000E+000
-0.897097E+000 -0.897097E+000  0.000000E+000
-0.785450E+000 -0.899157E+000  0.000000E+000
-0.100000E+001 -0.875000E+000  0.000000E+000
-0.899157E+000 -0.785450E+000  0.000000E+000
-0.750000E+000 -0.100000E+001  0.000000E+000
-0.673612E+000 -0.900983E+000  0.000000E+000
-0.794194E+000 -0.794194E+000  0.000000E+000
-0.695900E+000 -0.798313E+000  0.000000E+000
-0.798313E+000 -0.695900E+000  0.000000E+000
-0.597223E+000 -0.801967E+000  0.000000E+000
-0.100000E+001 -0.750000E+000  0.000000E+000
-0.900983E+000 -0.673612E+000  0.000000E+000
-0.801967E+000 -0.597223E+000  0.000000E+000
-0.625000E+000 -0.100000E+001  0.000000E+000
-0.561606E+000 -0.902560E+000  0.000000E+000
-0.498212E+000 -0.805120E+000  0.000000E+000
-0.691291E+000 -0.691291E+000  0.000000E+000
-0.606349E+000 -0.697470E+000  0.000000E+000
-0.697470E+000 -0.606349E+000  0.000000E+000
-0.520835E+000 -0.702950E+000  0.000000E+000
-0.702950E+000 -0.520835E+000  0.000000E+000
-0.434818E+000 -0.707680E+000  0.000000E+000
-0.100000E+001 -0.625000E+000  0.000000E+000
-0.902560E+000 -0.561606E+000  0.000000E+000
-0.805120E+000 -0.498212E+000  0.000000E+000
-0.707680E+000 -0.434818E+000  0.000000E+000
-0.500000E+000 -0.100000E+001  0.000000E+000
-0.449459E+000 -0.903871E+000  0.000000E+000
-0.398918E+000 -0.807742E+000  0.000000E+000
-0.348377E+000 -0.711614E+000  0.000000E+000
-0.588388E+000 -0.588388E+000  0.000000E+000
-0.516799E+000 -0.596626E+000  0.000000E+000
-0.596626E+000 -0.516799E+000  0.000000E+000
-0.444446E+000 -0.603934E+000  0.000000E+000
-0.603934E+000 -0.444446E+000  0.000000E+000
-0.371425E+000 -0.610240E+000  0.000000E+000
-0.610240E+000 -0.371425E+000  0.000000E+000
-0.297835E+000 -0.615485E+000  0.000000E+000
-0.100000E+001 -0.500000E+000  0.000000E+000
-0.903871E+000 -0.449459E+000  0.000000E+000
-0.807742E+000 -0.398918E+000  0.000000E+000
-0.711614E+000 -0.348377E+000  0.000000E+000
-0.615485E+000 -0.297835E+000  0.000000E+000
-0.375000E+000 -0.100000E+001  0.000000E+000
-0.337196E+000 -0.904904E+000  0.000000E+000
-0.299393E+000 -0.809809E+000  0.000000E+000
-0.261589E+000 -0.714713E+000  0.000000E+000
-0.223786E+000 -0.619618E+000  0.000000E+000
-0.485485E+000 -0.485485E+000  0.000000E+000
-0.427249E+000 -0.495783E+000  0.000000E+000
-0.495783E+000 -0.427249E+000  0.000000E+000
-0.368058E+000 -0.504917E+000  0.000000E+000
-0.504917E+000 -0.368058E+000  0.000000E+000
-0.308031E+000 -0.512800E+000  0.000000E+000
-0.512800E+000 -0.308031E+000  0.000000E+000
-0.247294E+000 -0.519356E+000  0.000000E+000
-0.519356E+000 -0.247294E+000  0.000000E+000
-0.185982E+000 -0.524522E+000  0.000000E+000
-0.100000E+001 -0.375000E+000  0.000000E+000
-0.904904E+000 -0.337196E+000  0.000000E+000
-0.809809E+000 -0.299393E+000  0.000000E+000
-0.714713E+000 -0.261589E+000  0.000000E+000
-0.619618E+000 -0.223786E+000  0.000000E+000
-0.524522E+000 -0.185982E+000  0.000000E+000
-0.250000E+000 -0.100000E+001  0.000000E+000
-0.224847E+000 -0.905650E+000  0.000000E+000
-0.199693E+000 -0.811299E+000  0.000000E+000
-0.174540E+000 -0.716949E+000  0.000000E+000
-0.149386E+000 -0.622598E+000  0.000000E+000
-0.124233E+000 -0.528248E+000  0.000000E+000
-0.382583E+000 -0.382583E+000  0.000000E+000
-0.337699E+000 -0.394939E+000  0.000000E+000
-0.394939E+000 -0.337699E+000  0.000000E+000
-0.291669E+000 -0.405901E+000  0.000000E+000
-0.405901E+000 -0.291669E+000  0.000000E+000
-0.244637E+000 -0.415360E+000  0.000000E+000
-0.415360E+000 -0.244637E+000  0.000000E+000
-0.196753E+000 -0.423227E+000  0.000000E+000
-0.423227E+000 -0.196753E+000  0.000000E+000
-0.148178E+000 -0.429426E+000  0.000000E+000
-0.429426E+000 -0.148178E+000  0.000000E+000
-0.990794E-001 -0.433897E+000  0.000000E+000
-0.100000E+001 -0.250000E+000  0.000000E+000
-0.905650E+000 -0.224847E+000  0.000000E+000
-0.811299E+000 -0.199693E+000  0.000000E+000
-0.716949E+000 -0.174540E+000  0.000000E+000
-0.622598E+000 -0.149386E+000  0.000000E+000
-0.528248E+000 -0.124233E+000  0.000000E+000
-0.433897E+000 -0.990794E-001  0.000000E+000
-0.125000E+000 -0.100000E+001  0.000000E+000
-0.112438E+000 -0.906100E+000  0.000000E+000
-0.998761E-001 -0.812199E+000  0.000000E+000
-0.873141E-001 -0.718299E+000  0.000000E+000
-0.747521E-001 -0.624398E+000  0.000000E+000
-0.621902E-001 -0.530498E+000  0.000000E+000
-0.496282E-001 -0.436597E+000  0.000000E+000
-0.279680E+000 -0.279680E+000  0.000000E+000
-0.248149E+000 -0.294096E+000  0.000000E+000
-0.294096E+000 -0.248149E+000  0.000000E+000
-0.215281E+000 -0.306884E+000  0.000000E+000
-0.306884E+000 -0.215281E+000  0.000000E+000
-0.181243E+000 -0.317920E+000  0.000000E+000
-0.317920E+000 -0.181243E+000  0.000000E+000
-0.146212E+000 -0.327099E+000  0.000000E+000
-0.327099E+000 -0.146212E+000  0.000000E+000
-0.110375E+000 -0.334331E+000  0.000000E+000
-0.334331E+000 -0.110375E+000  0.000000E+000
-0.739260E-001 -0.339547E+000  0.000000E+000
-0.339547E+000 -0.739260E-001  0.000000E+000
-0.370662E-001 -0.342697E+000  0.000000E+000
-0.100000E+001 -0.125000E+000  0.000000E+000
-0.906100E+000 -0.112438E+000  0.000000E+000
-0.812199E+000 -0.998761E-001  0.000000E+000
-0.718299E+000 -0.873141E-001  0.000000E+000
-0.624398E+000 -0.747521E-001  0.000000E+000
-0.530498E+000 -0.621902E-001  0.000000E+000
-0.436597E+000 -0.496282E-001  0.000000E+000
-0.342697E+000 -0.370662E-001  0.000000E+000
 0.000000E+000 -0.100000E+001  0.000000E+000
-0.574053E-017 -0.906250E+000  0.000000E+000
-0.114811E-016 -0.812500E+000  0.000000E+000
-0.172216E-016 -0.718750E+000  0.000000E+000
-0.229621E-016 -0.625000E+000  0.000000E+000
-0.287027E-016 -0.531250E+000  0.000000E+000
-0.344432E-016 -0.437500E+000  0.000000E+000
-0.401837E-016 -0.343750E+000  0.000000E+000
-0.176777E+000 -0.176777E+000  0.000000E+000
-0.158598E+000 -0.193253E+000  0.000000E+000
-0.193253E+000 -0.158598E+000  0.000000E+000
-0.138893E+000 -0.207867E+000  0.000000E+000
-0.207867E+000 -0.138893E+000  0.000000E+000
-0.117849E+000 -0.220480E+000  0.000000E+000
-0.220480E+000 -0.117849E+000  0.000000E+000
-0.956709E-001 -0.230970E+000  0.000000E+000
-0.230970E+000 -0.956709E-001  0.000000E+000
-0.725712E-001 -0.239235E+000  0.000000E+000
-0.239235E+000 -0.725712E-001  0.000000E+000
-0.487726E-001 -0.245196E+000  0.000000E+000
-0.245196E+000 -0.487726E-001  0.000000E+000
-0.245043E-001 -0.248796E+000  0.000000E+000
-0.248796E+000 -0.245043E-001  0.000000E+000
-0.459243E-016 -0.250000E+000  0.000000E+000
-0.100000E+001  0.000000E+000  0.000000E+000
-0.906250E+000  0.114811E-016  0.000000E+000
-0.812500E+000  0.229621E-016  0.000000E+000
-0.718750E+000  0.344432E-016  0.000000E+000
-0.625000E+000  0.459243E-016  0.000000E+000
-0.531250E+000  0.574053E-016  0.000000E+000
-0.437500E+000  0.688864E-016  0.000000E+000
-0.343750E+000  0.803674E-016  0.000000E+000
-0.250000E+000  0.918485E-016  0.000000E+000
 0.125000E+000 -0.100000E+001  0.000000E+000
 0.112438E+000 -0.906100E+000  0.000000E+000
 0.998761E-001 -0.812199E+000  0.000000E+000
 0.873141E-001 -0.718299E+000  0.000000E+000
 0.747521E-001 -0.624398E+000  0.000000E+000
 0.621902E-001 -0.530498E+000  0.000000E+000
 0.496282E-001 -0.436597E+000  0.000000E+000
 0.370662E-001 -0.342697E+000  0.000000E+000
 0.245043E-001 -0.248796E+000  0.000000E+000
-0.100000E+001  0.125000E+000  0.000000E+000
-0.906100E+000  0.112438E+000  0.000000E+000
-0.812199E+000  0.998761E-001  0.000000E+000
-0.718299E+000  0.873141E-001  0.000000E+000
-0.624398E+000  0.747521E-001  0.000000E+000
-0.530498E+000  0.621902E-001  0.000000E+000
-0.436597E+000  0.496282E-001  0.000000E+000
-0.342697E+000  0.370662E-001  0.000000E+000
-0.248796E+000  0.245043E-001  0.000000E+000
 0.250000E+000 -0.100000E+001  0.000000E+000
 0.224847E+000 -0.905650E+000  0.000000E+000
 0.199693E+000 -0.811299E+000  0.000000E+000
 0.174540E+000 -0.716949E+000  0.000000E+000
 0.149386E+000 -0.622598E+000  0.000000E+000
 0.124233E+000 -0.528248E+000  0.000000E+000
 0.990794E-001 -0.433897E+000  0.000000E+000
 0.739260E-001 -0.339547E+000  0.000000E+000
 0.487726E-001 -0.245196E+000  0.000000E+000
-0.100000E+001  0.250000E+000  0.000000E+000
-0.905650E+000  0.224847E+000  0.000000E+000
-0.811299E+000  0.199693E+000  0.000000E+000
-0.716949E+000  0.174540E+000  0.000000E+000
-0.622598E+000  0.149386E+000  0.000000E+000
-0.528248E+000  0.124233E+000  0.000000E+000
-0.433897E+000  0.990794E-001  0.000000E+000
-0.339547E+000  0.739260E-001  0.000000E+000
-0.245196E+000  0.487726E-001  0.000000E+000
 0.375000E+000 -0.100000E+001  0.000000E+000
 0.337196E+000 -0.904904E+000  0.000000E+000
 0.299393E+000 -0.809809E+000  0.000000E+000
 0.261589E+000 -0.714713E+000  0.000000E+000
 0.223786E+000 -0.619618E+000  0.000000E+000
 0.185982E+000 -0.524522E+000  0.000000E+000
 0.148178E+000 -0.429426E+000  0.000000E+000
 0.110375E+000 -0.334331E+000  0.000000E+000
 0.725712E-001 -0.239235E+000  0.000000E+000
-0.100000E+001  0.375000E+000  0.000000E+000
-0.904904E+000  0.337196E+000  0.000000E+000
-0.809809E+000  0.299393E+000  0.000000E+000
-0.714713E+000  0.261589E+000  0.000000E+000
-0.619618E+000  0.223786E+000  0.000000E+000
-0.524522E+000  0.185982E+000  0.000000E+000
-0.429426E+000  0.148178E+000  0.000000E+000
-0.334331E+000  0.110375E+000  0.000000E+000
-0.239235E+000  0.725712E-001  0.000000E+000
 0.500000E+000 -0.100000E+001  0.000000E+000
 0.449459E+000 -0.903871E+000  0.000000E+000
 0.398918E+000 -0.807742E+000  0.000000E+000
 0.348377E+000 -0.711614E+000  0.000000E+000
 0.297835E+000 -0.615485E+000  0.000000E+000
 0.247294E+000 -0.519356E+000  0.000000E+000
 0.196753E+000 -0.423227E+000  0.000000E+000
 0.146212E+000 -0.327099E+000  0.000000E+000
 0.956709E-001 -0.230970E+000  0.000000E+000
-0.100000E+001  0.500000E+000  0.000000E+000
-0.903871E+000  0.449459E+000  0.000000E+000
-0.807742E+000  0.398918E+000  0.000000E+000
-0.711614E+000  0.348377E+000  0.000000E+000
[...]
POINT_DATA   576
SCALARS displacement FLOAT     3
LOOKUP_TABLE default
-0.326620E-004  0.133301E-004  0.000000E+000
-0.285533E-004  0.135209E-004  0.000000E+000
-0.295870E-004  0.119360E-004  0.000000E+000
-0.258737E-004  0.121765E-004  0.000000E+000
-0.330387E-004  0.114752E-004  0.000000E+000
-0.300729E-004  0.102388E-004  0.000000E+000
-0.244102E-004  0.137868E-004  0.000000E+000
-0.221157E-004  0.124964E-004  0.000000E+000
-0.265538E-004  0.105386E-004  0.000000E+000
-0.232258E-004  0.108358E-004  0.000000E+000
-0.271584E-004  0.899461E-005  0.000000E+000
-0.198485E-004  0.112205E-004  0.000000E+000
-0.335110E-004  0.961713E-005  0.000000E+000
-0.306547E-004  0.853651E-005  0.000000E+000
-0.278638E-004  0.744639E-005  0.000000E+000
-0.202467E-004  0.141353E-004  0.000000E+000
-0.183317E-004  0.129037E-004  0.000000E+000
-0.164365E-004  0.116924E-004  0.000000E+000
-0.235809E-004  0.914014E-005  0.000000E+000
-0.206330E-004  0.950798E-005  0.000000E+000
-0.243242E-004  0.774641E-005  0.000000E+000
-0.176208E-004  0.996242E-005  0.000000E+000
-0.251686E-004  0.634959E-005  0.000000E+000
-0.145780E-004  0.105190E-004  0.000000E+000
-0.340810E-004  0.778056E-005  0.000000E+000
-0.313344E-004  0.685712E-005  0.000000E+000
-0.286663E-004  0.592495E-005  0.000000E+000
-0.261123E-004  0.498293E-005  0.000000E+000
-0.160875E-004  0.145578E-004  0.000000E+000
-0.145481E-004  0.133849E-004  0.000000E+000
-0.130265E-004  0.122443E-004  0.000000E+000
-0.115349E-004  0.111484E-004  0.000000E+000
-0.207113E-004  0.775063E-005  0.000000E+000
-0.181177E-004  0.819485E-005  0.000000E+000
-0.216100E-004  0.649801E-005  0.000000E+000
-0.154692E-004  0.875218E-005  0.000000E+000
-0.226240E-004  0.524345E-005  0.000000E+000
-0.127810E-004  0.939710E-005  0.000000E+000
-0.237389E-004  0.404113E-005  0.000000E+000
-0.100928E-004  0.101183E-004  0.000000E+000
-0.347302E-004  0.600129E-005  0.000000E+000
-0.320892E-004  0.524022E-005  0.000000E+000
-0.295397E-004  0.447246E-005  0.000000E+000
-0.271247E-004  0.370047E-005  0.000000E+000
-0.249017E-004  0.292723E-005  0.000000E+000
-0.119655E-004  0.150192E-004  0.000000E+000
-0.108029E-004  0.139037E-004  0.000000E+000
-0.965667E-005  0.128269E-004  0.000000E+000
-0.853418E-005  0.118040E-004  0.000000E+000
-0.745026E-005  0.108544E-004  0.000000E+000
-0.180067E-004  0.638097E-005  0.000000E+000
-0.157673E-004  0.695082E-005  0.000000E+000
-0.191211E-004  0.525768E-005  0.000000E+000
-0.134508E-004  0.759902E-005  0.000000E+000
-0.203374E-004  0.416574E-005  0.000000E+000
-0.110912E-004  0.835968E-005  0.000000E+000
-0.216328E-004  0.310833E-005  0.000000E+000
-0.874001E-005  0.918792E-005  0.000000E+000
-0.229733E-004  0.215772E-005  0.000000E+000
-0.644395E-005  0.100129E-004  0.000000E+000
-0.354065E-004  0.432026E-005  0.000000E+000
-0.328616E-004  0.373025E-005  0.000000E+000
-0.304214E-004  0.313999E-005  0.000000E+000
-0.281258E-004  0.254802E-005  0.000000E+000
-0.260355E-004  0.195405E-005  0.000000E+000
-0.242593E-004  0.137361E-005  0.000000E+000
-0.791007E-005  0.154520E-004  0.000000E+000
-0.712891E-005  0.143848E-004  0.000000E+000
-0.636173E-005  0.133622E-004  0.000000E+000
-0.561146E-005  0.123975E-004  0.000000E+000
-0.488957E-005  0.115104E-004  0.000000E+000
-0.422866E-005  0.107255E-004  0.000000E+000
-0.156832E-004  0.510852E-005  0.000000E+000
-0.137147E-004  0.576239E-005  0.000000E+000
-0.170105E-004  0.412607E-005  0.000000E+000
-0.116708E-004  0.658293E-005  0.000000E+000
-0.184600E-004  0.311321E-005  0.000000E+000
-0.962444E-005  0.749322E-005  0.000000E+000
-0.200132E-004  0.221086E-005  0.000000E+000
-0.760714E-005  0.844021E-005  0.000000E+000
-0.215707E-004  0.146574E-005  0.000000E+000
-0.563836E-005  0.932667E-005  0.000000E+000
-0.229910E-004  0.895320E-006  0.000000E+000
-0.372193E-005  0.100525E-004  0.000000E+000
-0.360199E-004  0.276808E-005  0.000000E+000
-0.335546E-004  0.236246E-005  0.000000E+000
-0.312017E-004  0.196109E-005  0.000000E+000
-0.290010E-004  0.155913E-005  0.000000E+000
-0.270144E-004  0.115819E-005  0.000000E+000
-0.253418E-004  0.776793E-006  0.000000E+000
-0.241334E-004  0.488887E-006  0.000000E+000
-0.392972E-005  0.157665E-004  0.000000E+000
-0.353660E-005  0.147327E-004  0.000000E+000
-0.315203E-005  0.137460E-004  0.000000E+000
-0.277647E-005  0.128193E-004  0.000000E+000
-0.241658E-005  0.119693E-004  0.000000E+000
-0.209082E-005  0.112115E-004  0.000000E+000
-0.184882E-005  0.105289E-004  0.000000E+000
-0.140707E-004  0.404864E-005  0.000000E+000
-0.123372E-004  0.503698E-005  0.000000E+000
-0.158412E-004  0.309775E-005  0.000000E+000
-0.106437E-004  0.603731E-005  0.000000E+000
-0.176904E-004  0.237364E-005  0.000000E+000
-0.892723E-005  0.704209E-005  0.000000E+000
-0.194908E-004  0.176663E-005  0.000000E+000
-0.718789E-005  0.796671E-005  0.000000E+000
-0.211211E-004  0.126878E-005  0.000000E+000
-0.542273E-005  0.875295E-005  0.000000E+000
-0.224937E-004  0.864580E-006  0.000000E+000
-0.363266E-005  0.935127E-005  0.000000E+000
-0.235330E-004  0.534184E-006  0.000000E+000
-0.182214E-005  0.972523E-005  0.000000E+000
-0.364562E-004  0.134351E-005  0.000000E+000
-0.340439E-004  0.113608E-005  0.000000E+000
-0.317487E-004  0.932731E-006  0.000000E+000
-0.296093E-004  0.729645E-006  0.000000E+000
-0.276859E-004  0.528592E-006  0.000000E+000
-0.260682E-004  0.341600E-006  0.000000E+000
-0.248752E-004  0.209687E-006  0.000000E+000
-0.241811E-004  0.254302E-006  0.000000E+000
 0.192036E-020  0.158823E-004  0.000000E+000
 0.138880E-016  0.148604E-004  0.000000E+000
 0.111031E-015  0.138866E-004  0.000000E+000
 0.485864E-016  0.129728E-004  0.000000E+000
-0.346804E-016  0.121348E-004  0.000000E+000
-0.692352E-017  0.113843E-004  0.000000E+000
-0.693725E-016  0.106950E-004  0.000000E+000
-0.138712E-016  0.985240E-005  0.000000E+000
-0.164383E-004  0.539543E-005  0.000000E+000
-0.149502E-004  0.592517E-005  0.000000E+000
-0.181395E-004  0.507375E-005  0.000000E+000
-0.131609E-004  0.643762E-005  0.000000E+000
-0.196103E-004  0.448903E-005  0.000000E+000
-0.112092E-004  0.685411E-005  0.000000E+000
-0.208391E-004  0.383751E-005  0.000000E+000
-0.912481E-005  0.719148E-005  0.000000E+000
-0.218471E-004  0.313307E-005  0.000000E+000
-0.693635E-005  0.745005E-005  0.000000E+000
-0.226324E-004  0.238736E-005  0.000000E+000
-0.466880E-005  0.763253E-005  0.000000E+000
-0.231940E-004  0.160985E-005  0.000000E+000
-0.234791E-005  0.774090E-005  0.000000E+000
-0.235312E-004  0.810530E-006  0.000000E+000
 0.416471E-016  0.777683E-005  0.000000E+000
-0.366150E-004 -0.130168E-020  0.000000E+000
-0.342216E-004  0.199486E-015  0.000000E+000
-0.319467E-004  0.101902E-015  0.000000E+000
-0.298284E-004  0.316498E-016  0.000000E+000
-0.279258E-004 -0.205116E-015  0.000000E+000
-0.263245E-004 -0.202938E-015  0.000000E+000
-0.251325E-004 -0.730548E-016  0.000000E+000
-0.244014E-004 -0.207935E-016  0.000000E+000
-0.236436E-004 -0.520124E-016  0.000000E+000
 0.392972E-005  0.157665E-004  0.000000E+000
 0.353660E-005  0.147327E-004  0.000000E+000
 0.315203E-005  0.137460E-004  0.000000E+000
 0.277647E-005  0.128193E-004  0.000000E+000
 0.241658E-005  0.119693E-004  0.000000E+000
 0.209082E-005  0.112115E-004  0.000000E+000
 0.184882E-005  0.105289E-004  0.000000E+000
 0.182214E-005  0.972523E-005  0.000000E+000
 0.234791E-005  0.774090E-005  0.000000E+000
-0.364562E-004 -0.134351E-005  0.000000E+000
-0.340439E-004 -0.113608E-005  0.000000E+000
-0.317487E-004 -0.932731E-006  0.000000E+000
-0.296093E-004 -0.729645E-006  0.000000E+000
-0.276859E-004 -0.528592E-006  0.000000E+000
-0.260682E-004 -0.341600E-006  0.000000E+000
-0.248752E-004 -0.209687E-006  0.000000E+000
-0.241811E-004 -0.254302E-006  0.000000E+000
-0.235312E-004 -0.810530E-006  0.000000E+000
 0.791007E-005  0.154520E-004  0.000000E+000
 0.712891E-005  0.143848E-004  0.000000E+000
 0.636173E-005  0.133622E-004  0.000000E+000
 0.561146E-005  0.123975E-004  0.000000E+000
 0.488957E-005  0.115104E-004  0.000000E+000
 0.422866E-005  0.107255E-004  0.000000E+000
 0.372193E-005  0.100525E-004  0.000000E+000
 0.363266E-005  0.935127E-005  0.000000E+000
 0.466880E-005  0.763253E-005  0.000000E+000
-0.360199E-004 -0.276808E-005  0.000000E+000
-0.335546E-004 -0.236246E-005  0.000000E+000
-0.312017E-004 -0.196109E-005  0.000000E+000
-0.290010E-004 -0.155913E-005  0.000000E+000
-0.270144E-004 -0.115819E-005  0.000000E+000
-0.253418E-004 -0.776793E-006  0.000000E+000
-0.241334E-004 -0.488887E-006  0.000000E+000
-0.235330E-004 -0.534184E-006  0.000000E+000
-0.231940E-004 -0.160985E-005  0.000000E+000
 0.119655E-004  0.150192E-004  0.000000E+000
 0.108029E-004  0.139037E-004  0.000000E+000
 0.965667E-005  0.128269E-004  0.000000E+000
 0.853418E-005  0.118040E-004  0.000000E+000
 0.745026E-005  0.108544E-004  0.000000E+000
 0.644395E-005  0.100129E-004  0.000000E+000
 0.563836E-005  0.932667E-005  0.000000E+000
 0.542273E-005  0.875295E-005  0.000000E+000
 0.693635E-005  0.745005E-005  0.000000E+000
-0.354065E-004 -0.432026E-005  0.000000E+000
-0.328616E-004 -0.373025E-005  0.000000E+000
-0.304214E-004 -0.313999E-005  0.000000E+000
-0.281258E-004 -0.254802E-005  0.000000E+000
-0.260355E-004 -0.195405E-005  0.000000E+000
-0.242593E-004 -0.137361E-005  0.000000E+000
-0.229910E-004 -0.895320E-006  0.000000E+000
-0.224937E-004 -0.864580E-006  0.000000E+000
-0.226324E-004 -0.238736E-005  0.000000E+000
 0.160875E-004  0.145578E-004  0.000000E+000
 0.145481E-004  0.133849E-004  0.000000E+000
 0.130265E-004  0.122443E-004  0.000000E+000
 0.115349E-004  0.111484E-004  0.000000E+000
 0.100928E-004  0.101183E-004  0.000000E+000
 0.874001E-005  0.918792E-005  0.000000E+000
 0.760714E-005  0.844021E-005  0.000000E+000
 0.718789E-005  0.796671E-005  0.000000E+000
 0.912481E-005  0.719148E-005  0.000000E+000
-0.347302E-004 -0.600129E-005  0.000000E+000
-0.320892E-004 -0.524022E-005  0.000000E+000
-0.295397E-004 -0.447246E-005  0.000000E+000
-0.271247E-004 -0.370047E-005  0.000000E+000
-0.249017E-004 -0.292723E-005  0.000000E+000
-0.229733E-004 -0.215772E-005  0.000000E+000
-0.215707E-004 -0.146574E-005  0.000000E+000
-0.211211E-004 -0.126878E-005  0.000000E+000
-0.218471E-004 -0.313307E-005  0.000000E+000
 0.202467E-004  0.141353E-004  0.000000E+000
 0.183317E-004  0.129037E-004  0.000000E+000
 0.164365E-004  0.116924E-004  0.000000E+000
 0.145780E-004  0.105190E-004  0.000000E+000
 0.127810E-004  0.939710E-005  0.000000E+000
 0.110912E-004  0.835968E-005  0.000000E+000
 0.962444E-005  0.749322E-005  0.000000E+000
 0.892723E-005  0.704209E-005  0.000000E+000
 0.112092E-004  0.685411E-005  0.000000E+000
-0.340810E-004 -0.778056E-005  0.000000E+000
-0.313344E-004 -0.685712E-005  0.000000E+000
-0.286663E-004 -0.592495E-005  0.000000E+000
-0.261123E-004 -0.498293E-005  0.000000E+000
-0.237389E-004 -0.404113E-005  0.000000E+000
-0.216328E-004 -0.310833E-005  0.000000E+000
-0.200132E-004 -0.221086E-005  0.000000E+000
-0.194908E-004 -0.176663E-005  0.000000E+000
-0.208391E-004 -0.383751E-005  0.000000E+000
 0.244102E-004  0.137868E-004  0.000000E+000
 0.221157E-004  0.124964E-004  0.000000E+000
 0.198485E-004  0.112205E-004  0.000000E+000
 0.176208E-004  0.996242E-005  0.000000E+000
 0.154692E-004  0.875218E-005  0.000000E+000
 0.134508E-004  0.759902E-005  0.000000E+000
 0.116708E-004  0.658293E-005  0.000000E+000
 0.106437E-004  0.603731E-005  0.000000E+000
 0.131609E-004  0.643762E-005  0.000000E+000
-0.335110E-004 -0.961713E-005  0.000000E+000
-0.306547E-004 -0.853651E-005  0.000000E+000
-0.278638E-004 -0.744639E-005  0.000000E+000
-0.251686E-004 -0.634959E-005  0.000000E+000
-0.226240E-004 -0.524345E-005  0.000000E+000
-0.203374E-004 -0.416574E-005  0.000000E+000
-0.184600E-004 -0.311321E-005  0.000000E+000
-0.176904E-004 -0.237364E-005  0.000000E+000
-0.196103E-004 -0.448903E-005  0.000000E+000
 0.285533E-004  0.135209E-004  0.000000E+000
 0.258737E-004  0.121765E-004  0.000000E+000
 0.232258E-004  0.108358E-004  0.000000E+000
 0.206330E-004  0.950798E-005  0.000000E+000
 0.181177E-004  0.819485E-005  0.000000E+000
 0.157673E-004  0.695082E-005  0.000000E+000
 0.137147E-004  0.576239E-005  0.000000E+000
 0.123372E-004  0.503698E-005  0.000000E+000
 0.149502E-004  0.592517E-005  0.000000E+000
-0.330387E-004 -0.114752E-004  0.000000E+000
-0.300729E-004 -0.102388E-004  0.000000E+000
-0.271584E-004 -0.899461E-005  0.000000E+000
-0.243242E-004 -0.774641E-005  0.000000E+000
-0.216100E-004 -0.649801E-005  0.000000E+000
-0.191211E-004 -0.525768E-005  0.000000E+000
-0.170105E-004 -0.412607E-005  0.000000E+000
-0.158412E-004 -0.309775E-005  0.000000E+000
-0.181395E-004 -0.507375E-005  0.000000E+000
 0.326620E-004  0.133301E-004  0.000000E+000
 0.295870E-004  0.119360E-004  0.000000E+000
 0.265538E-004  0.105386E-004  0.000000E+000
 0.235809E-004  0.914014E-005  0.000000E+000
 0.207113E-004  0.775063E-005  0.000000E+000
 0.180067E-004  0.638097E-005  0.000000E+000
 0.156832E-004  0.510852E-005  0.000000E+000
 0.140707E-004  0.404864E-005  0.000000E+000
 0.164383E-004  0.539543E-005  0.000000E+000
-0.326620E-004 -0.133301E-004  0.000000E+000
-0.295870E-004 -0.119360E-004  0.000000E+000
-0.265538E-004 -0.105386E-004  0.000000E+000
-0.235809E-004 -0.914014E-005  0.000000E+000
-0.207113E-004 -0.775063E-005  0.000000E+000
-0.180067E-004 -0.638097E-005  0.000000E+000
-0.156832E-004 -0.510852E-005  0.000000E+000
-0.140707E-004 -0.404864E-005  0.000000E+000
-0.164383E-004 -0.539543E-005  0.000000E+000
 0.330387E-004  0.114752E-004  0.000000E+000
 0.300729E-004  0.102388E-004  0.000000E+000
 0.271584E-004  0.899461E-005  0.000000E+000
 0.243242E-004  0.774641E-005  0.000000E+000
 0.216100E-004  0.649801E-005  0.000000E+000
 0.191211E-004  0.525768E-005  0.000000E+000
 0.170105E-004  0.412607E-005  0.000000E+000
 0.158412E-004  0.309775E-005  0.000000E+000
 0.181395E-004  0.507375E-005  0.000000E+000
-0.285533E-004 -0.135209E-004  0.000000E+000
-0.258737E-004 -0.121765E-004  0.000000E+000
-0.232258E-004 -0.108358E-004  0.000000E+000
-0.206330E-004 -0.950798E-005  0.000000E+000
-0.181177E-004 -0.819485E-005  0.000000E+000
-0.157673E-004 -0.695082E-005  0.000000E+000
-0.137147E-004 -0.576239E-005  0.000000E+000
-0.123372E-004 -0.503698E-005  0.000000E+000
-0.149502E-004 -0.592517E-005  0.000000E+000
 0.335110E-004  0.961713E-005  0.000000E+000
 0.306547E-004  0.853651E-005  0.000000E+000
 0.278638E-004  0.744639E-005  0.000000E+000
 0.251686E-004  0.634959E-005  0.000000E+000
 0.226240E-004  0.524345E-005  0.000000E+000
 0.203374E-004  0.416574E-005  0.000000E+000
 0.184600E-004  0.311321E-005  0.000000E+000
 0.176904E-004  0.237364E-005  0.000000E+000
 0.196103E-004  0.448903E-005  0.000000E+000
-0.244102E-004 -0.137868E-004  0.000000E+000
-0.221157E-004 -0.124964E-004  0.000000E+000
-0.198485E-004 -0.112205E-004  0.000000E+000
-0.176208E-004 -0.996242E-005  0.000000E+000
-0.154692E-004 -0.875218E-005  0.000000E+000
-0.134508E-004 -0.759902E-005  0.000000E+000
-0.116708E-004 -0.658293E-005  0.000000E+000
-0.106437E-004 -0.603731E-005  0.000000E+000
-0.131609E-004 -0.643762E-005  0.000000E+000
 0.340810E-004  0.778056E-005  0.000000E+000
 0.313344E-004  0.685712E-005  0.000000E+000
 0.286663E-004  0.592495E-005  0.000000E+000
 0.261123E-004  0.498293E-005  0.000000E+000
 0.237389E-004  0.404113E-005  0.000000E+000
 0.216328E-004  0.310833E-005  0.000000E+000
 0.200132E-004  0.221086E-005  0.000000E+000
 0.194908E-004  0.176663E-005  0.000000E+000
 0.208391E-004  0.383751E-005  0.000000E+000
-0.202467E-004 -0.141353E-004  0.000000E+000
-0.183317E-004 -0.129037E-004  0.000000E+000
-0.164365E-004 -0.116924E-004  0.000000E+000
-0.145780E-004 -0.105190E-004  0.000000E+000
-0.127810E-004 -0.939710E-005  0.000000E+000
-0.110912E-004 -0.835968E-005  0.000000E+000
-0.962444E-005 -0.749322E-005  0.000000E+000
-0.892723E-005 -0.704209E-005  0.000000E+000
-0.112092E-004 -0.685411E-005  0.000000E+000
 0.347302E-004  0.600129E-005  0.000000E+000
 0.320892E-004  0.524022E-005  0.000000E+000
 0.295397E-004  0.447246E-005  0.000000E+000
 0.271247E-004  0.370047E-005  0.000000E+000
 0.249017E-004  0.292723E-005  0.000000E+000
 0.229733E-004  0.215772E-005  0.000000E+000
 0.215707E-004  0.146574E-005  0.000000E+000
 0.211211E-004  0.126878E-005  0.000000E+000
 0.218471E-004  0.313307E-005  0.000000E+000
-0.160875E-004 -0.145578E-004  0.000000E+000
-0.145481E-004 -0.133849E-004  0.000000E+000
-0.130265E-004 -0.122443E-004  0.000000E+000
-0.115349E-004 -0.111484E-004  0.000000E+000
-0.100928E-004 -0.101183E-004  0.000000E+000
-0.874001E-005 -0.918792E-005  0.000000E+000
-0.760714E-005 -0.844021E-005  0.000000E+000
-0.718789E-005 -0.796671E-005  0.000000E+000
-0.912481E-005 -0.719148E-005  0.000000E+000
 0.354065E-004  0.432026E-005  0.000000E+000
 0.328616E-004  0.373025E-005  0.000000E+000
 0.304214E-004  0.313999E-005  0.000000E+000
 0.281258E-004  0.254802E-005  0.000000E+000
 0.260355E-004  0.195405E-005  0.000000E+000
 0.242593E-004  0.137361E-005  0.000000E+000
 0.229910E-004  0.895320E-006  0.000000E+000
 0.224937E-004  0.864580E-006  0.000000E+000
 0.226324E-004  0.238736E-005  0.000000E+000
-0.119655E-004 -0.150192E-004  0.000000E+000
-0.108029E-004 -0.139037E-004  0.000000E+000
-0.965667E-005 -0.128269E-004  0.000000E+000
-0.853418E-005 -0.118040E-004  0.000000E+000
-0.745026E-005 -0.108544E-004  0.000000E+000
-0.644395E-005 -0.100129E-004  0.000000E+000
-0.563836E-005 -0.932667E-005  0.000000E+000
-0.542273E-005 -0.875295E-005  0.000000E+000
-0.693635E-005 -0.745005E-005  0.000000E+000
 0.360199E-004  0.276808E-005  0.000000E+000
 0.335546E-004  0.236246E-005  0.000000E+000
 0.312017E-004  0.196109E-005  0.000000E+000
 0.290010E-004  0.155913E-005  0.000000E+000
 0.270144E-004  0.115819E-005  0.000000E+000
 0.253418E-004  0.776793E-006  0.000000E+000
 0.241334E-004  0.488887E-006  0.000000E+000
 0.235330E-004  0.534184E-006  0.000000E+000
 0.231940E-004  0.160985E-005  0.000000E+000
-0.791007E-005 -0.154520E-004  0.000000E+000
-0.712891E-005 -0.143848E-004  0.000000E+000
-0.636173E-005 -0.133622E-004  0.000000E+000
-0.561146E-005 -0.123975E-004  0.000000E+000
-0.488957E-005 -0.115104E-004  0.000000E+000
-0.422866E-005 -0.107255E-004  0.000000E+000
-0.372193E-005 -0.100525E-004  0.000000E+000
-0.363266E-005 -0.935127E-005  0.000000E+000
-0.466880E-005 -0.763253E-005  0.000000E+000
 0.364562E-004  0.134351E-005  0.000000E+000
 0.340439E-004  0.113608E-005  0.000000E+000
 0.317487E-004  0.932731E-006  0.000000E+000
 0.296093E-004  0.729645E-006  0.000000E+000
 0.276859E-004  0.528592E-006  0.000000E+000
 0.260682E-004  0.341600E-006  0.000000E+000
 0.248752E-004  0.209687E-006  0.000000E+000
 0.241811E-004  0.254302E-006  0.000000E+000
 0.235312E-004  0.810530E-006  0.000000E+000
-0.392972E-005 -0.157665E-004  0.000000E+000
-0.353660E-005 -0.147327E-004  0.000000E+000
-0.315203E-005 -0.137460E-004  0.000000E+000
-0.277647E-005 -0.128193E-004  0.000000E+000
-0.241658E-005 -0.119693E-004  0.000000E+000
-0.209082E-005 -0.112115E-004  0.000000E+000
-0.184882E-005 -0.105289E-004  0.000000E+000
-0.182214E-005 -0.972523E-005  0.000000E+000
-0.234791E-005 -0.774090E-005  0.000000E+000
 0.366150E-004  0.000000E+000  0.000000E+000
 0.342216E-004 -0.611385E-016  0.000000E+000
 0.319467E-004  0.133136E-015  0.000000E+000
 0.298284E-004 -0.117517E-015  0.000000E+000
 0.279258E-004 -0.173494E-016  0.000000E+000
 0.263245E-004 -0.984412E-016  0.000000E+000
 0.251325E-004  0.390299E-016  0.000000E+000
 0.244014E-004 -0.832324E-016  0.000000E+000
 0.236436E-004  0.347085E-016  0.000000E+000
 0.192036E-020 -0.158823E-004  0.000000E+000
 0.693564E-017 -0.148604E-004  0.000000E+000
-0.111023E-015 -0.138866E-004  0.000000E+000
 0.624485E-016 -0.129728E-004  0.000000E+000
 0.693836E-017 -0.121348E-004  0.000000E+000
 0.693324E-017 -0.113843E-004  0.000000E+000
 0.124892E-015 -0.106950E-004  0.000000E+000
 0.555160E-016 -0.985240E-005  0.000000E+000
 0.693826E-016 -0.777683E-005  0.000000E+000
 0.364562E-004 -0.134351E-005  0.000000E+000