# vtk DataFile Version 3.0
output
ASCII
DATASET UNSTRUCTURED_GRID
POINTS  8448 FLOAT
-0.100000E+001 -0.100000E+001  0.000000E+000
-0.968750E+000 -0.100000E+001  0.000000E+000
-0.974274E+000 -0.974274E+000  0.000000E+000
-0.943864E+000 -0.974408E+000  0.000000E+000
-0.100000E+001 -0.968750E+000  0.000000E+000
-0.974408E+000 -0.943864E+000  0.000000E+000
-0.937500E+000 -0.100000E+001  0.000000E+000
-0.913450E+000 -0.974539E+000  0.000000E+000
-0.948549E+000 -0.948549E+000  0.000000E+000
-0.918977E+000 -0.948816E+000  0.000000E+000
-0.948816E+000 -0.918977E+000  0.000000E+000
-0.889399E+000 -0.949077E+000  0.000000E+000
-0.100000E+001 -0.937500E+000  0.000000E+000
-0.974539E+000 -0.913450E+000  0.000000E+000
-0.949077E+000 -0.889399E+000  0.000000E+000
-0.906250E+000 -0.100000E+001  0.000000E+000
-0.883033E+000 -0.974666E+000  0.000000E+000
-0.859815E+000 -0.949331E+000  0.000000E+000
-0.922823E+000 -0.922823E+000  0.000000E+000
-0.894091E+000 -0.923225E+000  0.000000E+000
-0.923225E+000 -0.894091E+000  0.000000E+000
-0.865349E+000 -0.923616E+000  0.000000E+000
-0.923616E+000 -0.865349E+000  0.000000E+000
-0.836598E+000 -0.923997E+000  0.000000E+000
-0.100000E+001 -0.906250E+000  0.000000E+000
-0.974666E+000 -0.883033E+000  0.000000E+000
-0.949331E+000 -0.859815E+000  0.000000E+000
-0.923997E+000 -0.836598E+000  0.000000E+000
-0.875000E+000 -0.100000E+001  0.000000E+000
-0.852612E+000 -0.974789E+000  0.000000E+000
-0.830225E+000 -0.949578E+000  0.000000E+000
-0.807837E+000 -0.924367E+000  0.000000E+000
-0.897097E+000 -0.897097E+000  0.000000E+000
-0.869204E+000 -0.897633E+000  0.000000E+000
-0.897633E+000 -0.869204E+000  0.000000E+000
-0.841299E+000 -0.898155E+000  0.000000E+000
-0.898155E+000 -0.841299E+000  0.000000E+000
-0.813380E+000 -0.898663E+000  0.000000E+000
-0.898663E+000 -0.813380E+000  0.000000E+000
-0.785450E+000 -0.899157E+000  0.000000E+000
-0.100000E+001 -0.875000E+000  0.000000E+000
-0.974789E+000 -0.852612E+000  0.000000E+000
-0.949578E+000 -0.830225E+000  0.000000E+000
-0.924367E+000 -0.807837E+000  0.000000E+000
-0.899157E+000 -0.785450E+000  0.000000E+000
-0.843750E+000 -0.100000E+001  0.000000E+000
-0.822189E+000 -0.974909E+000  0.000000E+000
-0.800629E+000 -0.949818E+000  0.000000E+000
-0.779068E+000 -0.924727E+000  0.000000E+000
-0.757507E+000 -0.899636E+000  0.000000E+000
-0.871371E+000 -0.871371E+000  0.000000E+000
-0.844318E+000 -0.872041E+000  0.000000E+000
-0.872041E+000 -0.844318E+000  0.000000E+000
-0.817248E+000 -0.872693E+000  0.000000E+000
-0.872693E+000 -0.817248E+000  0.000000E+000
-0.790163E+000 -0.873328E+000  0.000000E+000
-0.873328E+000 -0.790163E+000  0.000000E+000
-0.763062E+000 -0.873946E+000  0.000000E+000
-0.873946E+000 -0.763062E+000  0.000000E+000
-0.735947E+000 -0.874545E+000  0.000000E+000
-0.100000E+001 -0.843750E+000  0.000000E+000
-0.974909E+000 -0.822189E+000  0.000000E+000
-0.949818E+000 -0.800629E+000  0.000000E+000
-0.924727E+000 -0.779068E+000  0.000000E+000
-0.899636E+000 -0.757507E+000  0.000000E+000
-0.874545E+000 -0.735947E+000  0.000000E+000
-0.812500E+000 -0.100000E+001  0.000000E+000
-0.791763E+000 -0.975025E+000  0.000000E+000
-0.771027E+000 -0.950050E+000  0.000000E+000
-0.750290E+000 -0.925075E+000  0.000000E+000
-0.729553E+000 -0.900100E+000  0.000000E+000
-0.708816E+000 -0.875125E+000  0.000000E+000
-0.845646E+000 -0.845646E+000  0.000000E+000
-0.819432E+000 -0.846449E+000  0.000000E+000
-0.846449E+000 -0.819432E+000  0.000000E+000
-0.793198E+000 -0.847232E+000  0.000000E+000
-0.847232E+000 -0.793198E+000  0.000000E+000
-0.766946E+000 -0.847994E+000  0.000000E+000
-0.847994E+000 -0.766946E+000  0.000000E+000
-0.740675E+000 -0.848735E+000  0.000000E+000
-0.848735E+000 -0.740675E+000  0.000000E+000
-0.714386E+000 -0.849454E+000  0.000000E+000
-0.849454E+000 -0.714386E+000  0.000000E+000
-0.688080E+000 -0.850150E+000  0.000000E+000
-0.100000E+001 -0.812500E+000  0.000000E+000
-0.975025E+000 -0.791763E+000  0.000000E+000
-0.950050E+000 -0.771027E+000  0.000000E+000
-0.925075E+000 -0.750290E+000  0.000000E+000
-0.900100E+000 -0.729553E+000  0.000000E+000
-0.875125E+000 -0.708816E+000  0.000000E+000
-0.850150E+000 -0.688080E+000  0.000000E+000
-0.781250E+000 -0.100000E+001  0.000000E+000
-0.761334E+000 -0.975137E+000  0.000000E+000
-0.741419E+000 -0.950275E+000  0.000000E+000
-0.721503E+000 -0.925412E+000  0.000000E+000
-0.701588E+000 -0.900550E+000  0.000000E+000
-0.681672E+000 -0.875687E+000  0.000000E+000
-0.661757E+000 -0.850824E+000  0.000000E+000
-0.819920E+000 -0.819920E+000  0.000000E+000
-0.794545E+000 -0.820857E+000  0.000000E+000
-0.820857E+000 -0.794545E+000  0.000000E+000
-0.769148E+000 -0.821771E+000  0.000000E+000
-0.821771E+000 -0.769148E+000  0.000000E+000
-0.743728E+000 -0.822660E+000  0.000000E+000
-0.822660E+000 -0.743728E+000  0.000000E+000
-0.718287E+000 -0.823524E+000  0.000000E+000
-0.823524E+000 -0.718287E+000  0.000000E+000
-0.692825E+000 -0.824363E+000  0.000000E+000
-0.824363E+000 -0.692825E+000  0.000000E+000
-0.667343E+000 -0.825175E+000  0.000000E+000
-0.825175E+000 -0.667343E+000  0.000000E+000
-0.641841E+000 -0.825962E+000  0.000000E+000
-0.100000E+001 -0.781250E+000  0.000000E+000
-0.975137E+000 -0.761334E+000  0.000000E+000
-0.950275E+000 -0.741419E+000  0.000000E+000
-0.925412E+000 -0.721503E+000  0.000000E+000
-0.900550E+000 -0.701588E+000  0.000000E+000
-0.875687E+000 -0.681672E+000  0.000000E+000
-0.850824E+000 -0.661757E+000  0.000000E+000
-0.825962E+000 -0.641841E+000  0.000000E+000
-0.750000E+000 -0.100000E+001  0.000000E+000
-0.730903E+000 -0.975246E+000  0.000000E+000
-0.711806E+000 -0.950492E+000  0.000000E+000
-0.692709E+000 -0.925738E+000  0.000000E+000
-0.673612E+000 -0.900983E+000  0.000000E+000
-0.654514E+000 -0.876229E+000  0.000000E+000
-0.635417E+000 -0.851475E+000  0.000000E+000
-0.616320E+000 -0.826721E+000  0.000000E+000
-0.794194E+000 -0.794194E+000  0.000000E+000
-0.769659E+000 -0.795265E+000  0.000000E+000
-0.795265E+000 -0.769659E+000  0.000000E+000
-0.745097E+000 -0.796309E+000  0.000000E+000
-0.796309E+000 -0.745097E+000  0.000000E+000
-0.720511E+000 -0.797326E+000  0.000000E+000
-0.797326E+000 -0.720511E+000  0.000000E+000
-0.695900E+000 -0.798313E+000  0.000000E+000
-0.798313E+000 -0.695900E+000  0.000000E+000
-0.671264E+000 -0.799272E+000  0.000000E+000
-0.799272E+000 -0.671264E+000  0.000000E+000
-0.646606E+000 -0.800200E+000  0.000000E+000
-0.800200E+000 -0.646606E+000  0.000000E+000
-0.621926E+000 -0.801099E+000  0.000000E+000
-0.801099E+000 -0.621926E+000  0.000000E+000
-0.597223E+000 -0.801967E+000  0.000000E+000
-0.100000E+001 -0.750000E+000  0.000000E+000
-0.975246E+000 -0.730903E+000  0.000000E+000
-0.950492E+000 -0.711806E+000  0.000000E+000
-0.925738E+000 -0.692709E+000  0.000000E+000
-0.900983E+000 -0.673612E+000  0.000000E+000
-0.876229E+000 -0.654514E+000  0.000000E+000
-0.851475E+000 -0.635417E+000  0.000000E+000
-0.826721E+000 -0.616320E+000  0.000000E+000
-0.801967E+000 -0.597223E+000  0.000000E+000
-0.718750E+000 -0.100000E+001  0.000000E+000
-0.700469E+000 -0.975350E+000  0.000000E+000
-0.682187E+000 -0.950701E+000  0.000000E+000
-0.663906E+000 -0.926051E+000  0.000000E+000
-0.645625E+000 -0.901402E+000  0.000000E+000
-0.627344E+000 -0.876752E+000  0.000000E+000
-0.609062E+000 -0.852103E+000  0.000000E+000
-0.590781E+000 -0.827453E+000  0.000000E+000
-0.572500E+000 -0.802803E+000  0.000000E+000
-0.768468E+000 -0.768468E+000  0.000000E+000
-0.744772E+000 -0.769674E+000  0.000000E+000
-0.769674E+000 -0.744772E+000  0.000000E+000
-0.721047E+000 -0.770848E+000  0.000000E+000
-0.770848E+000 -0.721047E+000  0.000000E+000
-0.697293E+000 -0.771991E+000  0.000000E+000
-0.771991E+000 -0.697293E+000  0.000000E+000
-0.673512E+000 -0.773102E+000  0.000000E+000
-0.773102E+000 -0.673512E+000  0.000000E+000
-0.649704E+000 -0.774181E+000  0.000000E+000
-0.774181E+000 -0.649704E+000  0.000000E+000
-0.625869E+000 -0.775226E+000  0.000000E+000
-0.775226E+000 -0.625869E+000  0.000000E+000
-0.602010E+000 -0.776236E+000  0.000000E+000
-0.776236E+000 -0.602010E+000  0.000000E+000
-0.578126E+000 -0.777213E+000  0.000000E+000
-0.777213E+000 -0.578126E+000  0.000000E+000
-0.554219E+000 -0.778154E+000  0.000000E+000
-0.100000E+001 -0.718750E+000  0.000000E+000
-0.975350E+000 -0.700469E+000  0.000000E+000
-0.950701E+000 -0.682187E+000  0.000000E+000
-0.926051E+000 -0.663906E+000  0.000000E+000
-0.901402E+000 -0.645625E+000  0.000000E+000
-0.876752E+000 -0.627344E+000  0.000000E+000
-0.852103E+000 -0.609062E+000  0.000000E+000
-0.827453E+000 -0.590781E+000  0.000000E+000
-0.802803E+000 -0.572500E+000  0.000000E+000
-0.778154E+000 -0.554219E+000  0.000000E+000
-0.687500E+000 -0.100000E+001  0.000000E+000
-0.670032E+000 -0.975451E+000  0.000000E+000
-0.652564E+000 -0.950902E+000  0.000000E+000
-0.635096E+000 -0.926353E+000  0.000000E+000
-0.617628E+000 -0.901804E+000  0.000000E+000
-0.600160E+000 -0.877255E+000  0.000000E+000
-0.582692E+000 -0.852706E+000  0.000000E+000
-0.565224E+000 -0.828157E+000  0.000000E+000
-0.547756E+000 -0.803608E+000  0.000000E+000
-0.530288E+000 -0.779059E+000  0.000000E+000
-0.742743E+000 -0.742743E+000  0.000000E+000
-0.719886E+000 -0.744082E+000  0.000000E+000
-0.744082E+000 -0.719886E+000  0.000000E+000
-0.696997E+000 -0.745387E+000  0.000000E+000
-0.745387E+000 -0.696997E+000  0.000000E+000
-0.674076E+000 -0.746657E+000  0.000000E+000
-0.746657E+000 -0.674076E+000  0.000000E+000
-0.651124E+000 -0.747891E+000  0.000000E+000
-0.747891E+000 -0.651124E+000  0.000000E+000
-0.628143E+000 -0.749090E+000  0.000000E+000
-0.749090E+000 -0.628143E+000  0.000000E+000
-0.605133E+000 -0.750251E+000  0.000000E+000
-0.750251E+000 -0.605133E+000  0.000000E+000
-0.582094E+000 -0.751374E+000  0.000000E+000
-0.751374E+000 -0.582094E+000  0.000000E+000
-0.559029E+000 -0.752459E+000  0.000000E+000
-0.752459E+000 -0.559029E+000  0.000000E+000
-0.535937E+000 -0.753504E+000  0.000000E+000
-0.753504E+000 -0.535937E+000  0.000000E+000
-0.512821E+000 -0.754510E+000  0.000000E+000
[...]
POINT_DATA  8448
SCALARS displacement FLOAT     3
LOOKUP_TABLE default
-0.326620E-004  0.133301E-004  0.000000E+000
-0.316384E-004  0.133714E-004  0.000000E+000
-0.318898E-004  0.129822E-004  0.000000E+000
-0.308913E-004  0.130266E-004  0.000000E+000
-0.327478E-004  0.128676E-004  0.000000E+000
-0.319822E-004  0.125298E-004  0.000000E+000
-0.306124E-004  0.134169E-004  0.000000E+000
-0.298901E-004  0.130751E-004  0.000000E+000
-0.311196E-004  0.126343E-004  0.000000E+000
-0.301460E-004  0.126817E-004  0.000000E+000
-0.312187E-004  0.121920E-004  0.000000E+000
-0.291696E-004  0.127334E-004  0.000000E+000
-0.328390E-004  0.124041E-004  0.000000E+000
-0.320800E-004  0.120765E-004  0.000000E+000
-0.313232E-004  0.117487E-004  0.000000E+000
-0.295840E-004  0.134666E-004  0.000000E+000
-0.288864E-004  0.131279E-004  0.000000E+000
-0.281906E-004  0.127895E-004  0.000000E+000
-0.303517E-004  0.122863E-004  0.000000E+000
-0.294029E-004  0.123370E-004  0.000000E+000
-0.304575E-004  0.118541E-004  0.000000E+000
-0.284512E-004  0.123919E-004  0.000000E+000
-0.305689E-004  0.114208E-004  0.000000E+000
-0.274967E-004  0.124512E-004  0.000000E+000
-0.329360E-004  0.119399E-004  0.000000E+000
-0.321835E-004  0.116223E-004  0.000000E+000
-0.314334E-004  0.113046E-004  0.000000E+000
-0.306860E-004  0.109867E-004  0.000000E+000
-0.285533E-004  0.135209E-004  0.000000E+000
-0.278803E-004  0.131854E-004  0.000000E+000
-0.272090E-004  0.128502E-004  0.000000E+000
-0.265394E-004  0.125153E-004  0.000000E+000
-0.295861E-004  0.119384E-004  0.000000E+000
-0.286620E-004  0.119923E-004  0.000000E+000
-0.296989E-004  0.115162E-004  0.000000E+000
-0.277349E-004  0.120505E-004  0.000000E+000
-0.298173E-004  0.110928E-004  0.000000E+000
-0.268048E-004  0.121133E-004  0.000000E+000
-0.299414E-004  0.106685E-004  0.000000E+000
-0.258719E-004  0.121809E-004  0.000000E+000
-0.330387E-004  0.114752E-004  0.000000E+000
-0.322928E-004  0.111677E-004  0.000000E+000
-0.315495E-004  0.108599E-004  0.000000E+000
-0.308090E-004  0.105519E-004  0.000000E+000
-0.300714E-004  0.102437E-004  0.000000E+000
-0.275204E-004  0.135798E-004  0.000000E+000
-0.268719E-004  0.132476E-004  0.000000E+000
-0.262249E-004  0.129158E-004  0.000000E+000
-0.255797E-004  0.125843E-004  0.000000E+000
-0.249363E-004  0.122534E-004  0.000000E+000
-0.288231E-004  0.115905E-004  0.000000E+000
-0.279236E-004  0.116478E-004  0.000000E+000
-0.289431E-004  0.111782E-004  0.000000E+000
-0.270210E-004  0.117094E-004  0.000000E+000
-0.290686E-004  0.107646E-004  0.000000E+000
-0.261153E-004  0.117757E-004  0.000000E+000
-0.291999E-004  0.103502E-004  0.000000E+000
-0.252065E-004  0.118469E-004  0.000000E+000
-0.293372E-004  0.993519E-005  0.000000E+000
-0.242950E-004  0.119231E-004  0.000000E+000
-0.331475E-004  0.110102E-004  0.000000E+000
-0.324082E-004  0.107127E-004  0.000000E+000
-0.316716E-004  0.104149E-004  0.000000E+000
-0.309380E-004  0.101169E-004  0.000000E+000
-0.302076E-004  0.981850E-005  0.000000E+000
-0.294806E-004  0.951982E-005  0.000000E+000
-0.264855E-004  0.136437E-004  0.000000E+000
-0.258613E-004  0.133148E-004  0.000000E+000
-0.252385E-004  0.129863E-004  0.000000E+000
-0.246175E-004  0.126584E-004  0.000000E+000
-0.239982E-004  0.123311E-004  0.000000E+000
-0.233809E-004  0.120045E-004  0.000000E+000
-0.280630E-004  0.112426E-004  0.000000E+000
-0.271880E-004  0.113034E-004  0.000000E+000
-0.281903E-004  0.108401E-004  0.000000E+000
-0.263097E-004  0.113686E-004  0.000000E+000
-0.283232E-004  0.104364E-004  0.000000E+000
-0.254282E-004  0.114385E-004  0.000000E+000
-0.284619E-004  0.100318E-004  0.000000E+000
-0.245436E-004  0.115134E-004  0.000000E+000
-0.286066E-004  0.962646E-005  0.000000E+000
-0.236560E-004  0.115934E-004  0.000000E+000
-0.287575E-004  0.922084E-005  0.000000E+000
-0.227657E-004  0.116786E-004  0.000000E+000
-0.332624E-004  0.105453E-004  0.000000E+000
-0.325297E-004  0.102578E-004  0.000000E+000
-0.317999E-004  0.997002E-005  0.000000E+000
-0.310732E-004  0.968188E-005  0.000000E+000
-0.303499E-004  0.939338E-005  0.000000E+000
-0.296302E-004  0.910452E-005  0.000000E+000
-0.289146E-004  0.881530E-005  0.000000E+000
-0.254487E-004  0.137127E-004  0.000000E+000
-0.248487E-004  0.133871E-004  0.000000E+000
-0.242501E-004  0.130621E-004  0.000000E+000
-0.236531E-004  0.127377E-004  0.000000E+000
-0.230578E-004  0.124141E-004  0.000000E+000
-0.224643E-004  0.120913E-004  0.000000E+000
-0.218729E-004  0.117694E-004  0.000000E+000
-0.273060E-004  0.108949E-004  0.000000E+000
-0.264554E-004  0.109592E-004  0.000000E+000
-0.274408E-004  0.105021E-004  0.000000E+000
-0.256014E-004  0.110281E-004  0.000000E+000
-0.275813E-004  0.101081E-004  0.000000E+000
-0.247439E-004  0.111017E-004  0.000000E+000
-0.277276E-004  0.971311E-005  0.000000E+000
-0.238833E-004  0.111804E-004  0.000000E+000
-0.278800E-004  0.931749E-005  0.000000E+000
-0.230195E-004  0.112643E-004  0.000000E+000
-0.280386E-004  0.892157E-005  0.000000E+000
-0.221530E-004  0.113536E-004  0.000000E+000
-0.282035E-004  0.852573E-005  0.000000E+000
-0.212838E-004  0.114484E-004  0.000000E+000
-0.333835E-004  0.100808E-004  0.000000E+000
-0.326575E-004  0.980335E-005  0.000000E+000
-0.319344E-004  0.952553E-005  0.000000E+000
-0.312147E-004  0.924732E-005  0.000000E+000
-0.304984E-004  0.896871E-005  0.000000E+000
-0.297861E-004  0.868969E-005  0.000000E+000
-0.290780E-004  0.841027E-005  0.000000E+000
-0.283746E-004  0.813043E-005  0.000000E+000
-0.244102E-004  0.137868E-004  0.000000E+000
-0.238344E-004  0.134646E-004  0.000000E+000
-0.232599E-004  0.131431E-004  0.000000E+000
-0.226869E-004  0.128224E-004  0.000000E+000
-0.221154E-004  0.125025E-004  0.000000E+000
-0.215457E-004  0.121835E-004  0.000000E+000
-0.209780E-004  0.118656E-004  0.000000E+000
-0.204124E-004  0.115488E-004  0.000000E+000
-0.265525E-004  0.105472E-004  0.000000E+000
-0.257262E-004  0.106152E-004  0.000000E+000
-0.266951E-004  0.101641E-004  0.000000E+000
-0.248962E-004  0.106879E-004  0.000000E+000
-0.268433E-004  0.977969E-005  0.000000E+000
-0.240627E-004  0.107655E-004  0.000000E+000
-0.269975E-004  0.939433E-005  0.000000E+000
-0.232259E-004  0.108482E-004  0.000000E+000
-0.271578E-004  0.900832E-005  0.000000E+000
-0.223858E-004  0.109362E-004  0.000000E+000
-0.273244E-004  0.862201E-005  0.000000E+000
-0.215429E-004  0.110296E-004  0.000000E+000
-0.274972E-004  0.823581E-005  0.000000E+000
-0.206972E-004  0.111286E-004  0.000000E+000
-0.276763E-004  0.785020E-005  0.000000E+000
-0.198493E-004  0.112333E-004  0.000000E+000
-0.335110E-004  0.961713E-005  0.000000E+000
-0.327915E-004  0.934972E-005  0.000000E+000
-0.320752E-004  0.908190E-005  0.000000E+000
-0.313624E-004  0.881364E-005  0.000000E+000
-0.306532E-004  0.854495E-005  0.000000E+000
-0.299482E-004  0.827581E-005  0.000000E+000
-0.292477E-004  0.800622E-005  0.000000E+000
-0.285520E-004  0.773617E-005  0.000000E+000
-0.278617E-004  0.746567E-005  0.000000E+000
-0.233705E-004  0.138662E-004  0.000000E+000
-0.228187E-004  0.135474E-004  0.000000E+000
-0.222682E-004  0.132295E-004  0.000000E+000
-0.217190E-004  0.129124E-004  0.000000E+000
-0.211714E-004  0.125963E-004  0.000000E+000
-0.206254E-004  0.122812E-004  0.000000E+000
-0.200813E-004  0.119673E-004  0.000000E+000
-0.195392E-004  0.116547E-004  0.000000E+000
-0.189994E-004  0.113436E-004  0.000000E+000
-0.258029E-004  0.101997E-004  0.000000E+000
-0.250007E-004  0.102716E-004  0.000000E+000
-0.259534E-004  0.982614E-005  0.000000E+000
-0.241946E-004  0.103482E-004  0.000000E+000
-0.261098E-004  0.945128E-005  0.000000E+000
-0.233849E-004  0.104298E-004  0.000000E+000
-0.262721E-004  0.907544E-005  0.000000E+000
-0.225717E-004  0.105167E-004  0.000000E+000
-0.264405E-004  0.869895E-005  0.000000E+000
-0.217553E-004  0.106089E-004  0.000000E+000
-0.266153E-004  0.832218E-005  0.000000E+000
-0.209357E-004  0.107067E-004  0.000000E+000
-0.267964E-004  0.794556E-005  0.000000E+000
-0.201135E-004  0.108101E-004  0.000000E+000
-0.269838E-004  0.756957E-005  0.000000E+000
-0.192888E-004  0.109192E-004  0.000000E+000
-0.271774E-004  0.719473E-005  0.000000E+000
-0.184621E-004  0.110341E-004  0.000000E+000
-0.336446E-004  0.915475E-005  0.000000E+000
-0.329317E-004  0.889740E-005  0.000000E+000
-0.322221E-004  0.863960E-005  0.000000E+000
-0.315162E-004  0.838134E-005  0.000000E+000
-0.308142E-004  0.812261E-005  0.000000E+000
-0.301165E-004  0.786339E-005  0.000000E+000
-0.294234E-004  0.760369E-005  0.000000E+000
-0.287355E-004  0.734349E-005  0.000000E+000
-0.280533E-004  0.708280E-005  0.000000E+000
-0.273772E-004  0.682163E-005  0.000000E+000
-0.223297E-004  0.139507E-004  0.000000E+000
-0.218019E-004  0.136355E-004  0.000000E+000
-0.212753E-004  0.133211E-004  0.000000E+000
-0.207500E-004  0.130078E-004  0.000000E+000
-0.202260E-004  0.126955E-004  0.000000E+000
-0.197037E-004  0.123844E-004  0.000000E+000
-0.191831E-004  0.120746E-004  0.000000E+000
-0.186644E-004  0.117662E-004  0.000000E+000
-0.181479E-004  0.114595E-004  0.000000E+000
-0.176339E-004  0.111545E-004  0.000000E+000
-0.250576E-004  0.985247E-005  0.000000E+000
-0.242793E-004  0.992834E-005  0.000000E+000
-0.252164E-004  0.948833E-005  0.000000E+000
-0.234970E-004  0.100091E-004  0.000000E+000
-0.253810E-004  0.912290E-005  0.000000E+000
-0.227110E-004  0.100949E-004  0.000000E+000
-0.255517E-004  0.875648E-005  0.000000E+000
-0.219213E-004  0.101861E-004  0.000000E+000
-0.257287E-004  0.838943E-005  0.000000E+000
-0.211282E-004  0.102827E-004  0.000000E+000
-0.259119E-004  0.802212E-005  0.000000E+000
-0.203319E-004  0.103850E-004  0.000000E+000
-0.261015E-004  0.765501E-005  0.000000E+000
-0.195329E-004  0.104930E-004  0.000000E+000
-0.262975E-004  0.728858E-005  0.000000E+000
-0.187313E-004  0.106068E-004  0.000000E+000
-0.264997E-004  0.692338E-005  0.000000E+000
-0.179277E-004  0.107264E-004  0.000000E+000
-0.267081E-004  0.656001E-005  0.000000E+000
-0.171225E-004  0.108516E-004  0.000000E+000
-0.337843E-004  0.869416E-005  0.000000E+000
-0.330780E-004  0.844691E-005  0.000000E+000
-0.323751E-004  0.819918E-005  0.000000E+000
-0.316761E-004  0.795096E-005  0.000000E+000
-0.309811E-004  0.770224E-005  0.000000E+000
-0.302907E-004  0.745302E-005  0.000000E+000
-0.296051E-004  0.720327E-005  0.000000E+000
-0.289249E-004  0.695300E-005  0.000000E+000
-0.282506E-004  0.670220E-005  0.000000E+000
-0.275828E-004  0.645090E-005  0.000000E+000
-0.269222E-004  0.619911E-005  0.000000E+000
-0.212883E-004  0.140405E-004  0.000000E+000
-0.207844E-004  0.137288E-004  0.000000E+000
-0.202816E-004  0.134180E-004  0.000000E+000
-0.197801E-004  0.131084E-004  0.000000E+000
-0.192798E-004  0.127999E-004  0.000000E+000
-0.187811E-004  0.124928E-004  0.000000E+000
-0.182840E-004  0.121871E-004  0.000000E+000
-0.177887E-004  0.118831E-004  0.000000E+000
-0.172955E-004  0.115808E-004  0.000000E+000
-0.168045E-004  0.112804E-004  0.000000E+000
-0.163162E-004  0.109823E-004  0.000000E+000
-0.243172E-004  0.950552E-005  0.000000E+000
-0.235626E-004  0.958557E-005  0.000000E+000
-0.244845E-004  0.915071E-005  0.000000E+000
-0.228039E-004  0.967059E-005  0.000000E+000
-0.246578E-004  0.879460E-005  0.000000E+000
-0.220413E-004  0.976083E-005  0.000000E+000
-0.248372E-004  0.843751E-005  0.000000E+000
-0.212749E-004  0.985649E-005  0.000000E+000
-0.250228E-004  0.807980E-005  0.000000E+000
-0.205050E-004  0.995774E-005  0.000000E+000
-0.252149E-004  0.772187E-005  0.000000E+000
-0.197319E-004  0.100647E-004  0.000000E+000
-0.254134E-004  0.736419E-005  0.000000E+000
-0.189558E-004  0.101775E-004  0.000000E+000
-0.256182E-004  0.700725E-005  0.000000E+000
-0.181772E-004  0.102962E-004  0.000000E+000
-0.258294E-004  0.665164E-005  0.000000E+000
-0.173965E-004  0.104207E-004  0.000000E+000
-0.260466E-004  0.629796E-005  0.000000E+000
-0.166142E-004  0.105509E-004  0.000000E+000
-0.262695E-004  0.594686E-005  0.000000E+000
-0.158307E-004  0.106865E-004  0.000000E+000
-0.339299E-004  0.823590E-005  0.000000E+000
-0.332300E-004  0.799880E-005  0.000000E+000
-0.325339E-004  0.776120E-005  0.000000E+000
-0.318417E-004  0.752309E-005  0.000000E+000
-0.311538E-004  0.728445E-005  0.000000E+000
-0.304705E-004  0.704529E-005  0.000000E+000
-0.297924E-004  0.680558E-005  0.000000E+000
-0.291199E-004  0.656533E-005  0.000000E+000
-0.284535E-004  0.632453E-005  0.000000E+000
-0.277939E-004  0.608320E-005  0.000000E+000
-0.271417E-004  0.584137E-005  0.000000E+000
-0.264978E-004  0.559906E-005  0.000000E+000
-0.202467E-004  0.141353E-004  0.000000E+000
-0.197667E-004  0.138270E-004  0.000000E+000
-0.192877E-004  0.135199E-004  0.000000E+000
-0.188098E-004  0.132140E-004  0.000000E+000
-0.183332E-004  0.129095E-004  0.000000E+000
-0.178580E-004  0.126064E-004  0.000000E+000
-0.173844E-004  0.123048E-004  0.000000E+000
-0.169125E-004  0.120050E-004  0.000000E+000
-0.164425E-004  0.117072E-004  0.000000E+000
-0.159747E-004  0.114115E-004  0.000000E+000
-0.155093E-004  0.111181E-004  0.000000E+000
-0.150467E-004  0.108273E-004  0.000000E+000
-0.235822E-004  0.915898E-005  0.000000E+000
-0.228511E-004  0.924339E-005  0.000000E+000
-0.237584E-004  0.881337E-005  0.000000E+000
-0.221158E-004  0.933291E-005  0.000000E+000
-0.239406E-004  0.846647E-005  0.000000E+000
-0.213764E-004  0.942776E-005  0.000000E+000
-0.241290E-004  0.811859E-005  0.000000E+000
-0.206331E-004  0.952813E-005  0.000000E+000
-0.243238E-004  0.777012E-005  0.000000E+000
-0.198862E-004  0.963422E-005  0.000000E+000
-0.245250E-004  0.742149E-005  0.000000E+000
-0.191360E-004  0.974613E-005  0.000000E+000
-0.247327E-004  0.707316E-005  0.000000E+000
-0.183828E-004  0.986396E-005  0.000000E+000
-0.249468E-004  0.672566E-005  0.000000E+000
-0.176270E-004  0.998771E-005  0.000000E+000
-0.251672E-004  0.637958E-005  0.000000E+000
-0.168690E-004  0.101173E-004  0.000000E+000
-0.253936E-004  0.603554E-005  0.000000E+000
-0.161094E-004  0.102527E-004  0.000000E+000
-0.256257E-004  0.569422E-005  0.000000E+000
-0.153486E-004  0.103935E-004  0.000000E+000
-0.258631E-004  0.535633E-005  0.000000E+000
-0.145873E-004  0.105395E-004  0.000000E+000
-0.340810E-004  0.778056E-005  0.000000E+000
-0.333876E-004  0.755367E-005  0.000000E+000
-0.326981E-004  0.732627E-005  0.000000E+000
-0.320126E-004  0.709834E-005  0.000000E+000
-0.313317E-004  0.686988E-005  0.000000E+000
-0.306556E-004  0.664086E-005  0.000000E+000
-0.299849E-004  0.641129E-005  0.000000E+000
-0.293200E-004  0.618117E-005  0.000000E+000
-0.286614E-004  0.595048E-005  0.000000E+000
-0.280099E-004  0.571926E-005  0.000000E+000
-0.273661E-004  0.548751E-005  0.000000E+000
-0.267309E-004  0.525528E-005  0.000000E+000
-0.261051E-004  0.502264E-005  0.000000E+000
-0.192053E-004  0.142348E-004  0.000000E+000
-0.187491E-004  0.139301E-004  0.000000E+000
-0.182939E-004  0.136266E-004  0.000000E+000
-0.178397E-004  0.133245E-004  0.000000E+000
-0.173867E-004  0.130238E-004  0.000000E+000
-0.169351E-004  0.127247E-004  0.000000E+000
-0.164849E-004  0.124273E-004  0.000000E+000
-0.160363E-004  0.121318E-004  0.000000E+000
-0.155895E-004  0.118384E-004  0.000000E+000
-0.151448E-004  0.115472E-004  0.000000E+000
-0.147024E-004  0.112587E-004  0.000000E+000
-0.142627E-004  0.109729E-004  0.000000E+000
-0.138260E-004  0.106902E-004  0.000000E+000
-0.228534E-004  0.881297E-005  0.000000E+000
-0.221456E-004  0.890197E-005  0.000000E+000
-0.230388E-004  0.847644E-005  0.000000E+000
-0.214334E-004  0.899620E-005  0.000000E+000
-0.232303E-004  0.813861E-005  0.000000E+000
-0.207170E-004  0.909588E-005  0.000000E+000
-0.234282E-004  0.779983E-005  0.000000E+000
-0.199966E-004  0.920121E-005  0.000000E+000
-0.236324E-004  0.746051E-005  0.000000E+000
-0.192725E-004  0.931236E-005  0.000000E+000
-0.238432E-004  0.712106E-005  0.000000E+000
-0.185449E-004  0.942944E-005  0.000000E+000
-0.240605E-004  0.678200E-005  0.000000E+000
-0.178143E-004  0.955252E-005  0.000000E+000
-0.242842E-004  0.644387E-005  0.000000E+000
-0.170811E-004  0.968159E-005  0.000000E+000
-0.245141E-004  0.610727E-005  0.000000E+000
-0.163457E-004  0.981659E-005  0.000000E+000
-0.247501E-004  0.577283E-005  0.000000E+000
-0.156086E-004  0.995735E-005  0.000000E+000
-0.249918E-004  0.544126E-005  0.000000E+000
-0.148703E-004  0.101036E-004  0.000000E+000
-0.252385E-004  0.511329E-005  0.000000E+000
-0.141315E-004  0.102550E-004  0.000000E+000
-0.254898E-004  0.478967E-005  0.000000E+000
-0.133928E-004  0.104110E-004  0.000000E+000
-0.342373E-004  0.732878E-005  0.000000E+000
-0.335503E-004  0.711218E-005  0.000000E+000
-0.328672E-004  0.689505E-005  0.000000E+000
-0.321885E-004  0.667739E-005  0.000000E+000
-0.315144E-004  0.645919E-005  0.000000E+000
-0.308455E-004  0.624043E-005  0.000000E+000
-0.301820E-004  0.602111E-005  0.000000E+000
-0.295246E-004  0.580123E-005  0.000000E+000
-0.288738E-004  0.558078E-005  0.000000E+000
-0.282302E-004  0.535979E-005  0.000000E+000
-0.275947E-004  0.513828E-005  0.000000E+000
-0.269679E-004  0.491629E-005  0.000000E+000
-0.263510E-004  0.469390E-005  0.000000E+000
-0.257449E-004  0.447119E-005  0.000000E+000
-0.181646E-004  0.143387E-004  0.000000E+000
-0.177322E-004  0.140375E-004  0.000000E+000
-0.173007E-004  0.137377E-004  0.000000E+000
-0.168702E-004  0.134393E-004  0.000000E+000
-0.164409E-004  0.131425E-004  0.000000E+000
-0.160127E-004  0.128474E-004  0.000000E+000
-0.155859E-004  0.125541E-004  0.000000E+000
-0.151607E-004  0.122629E-004  0.000000E+000
-0.147372E-004  0.119739E-004  0.000000E+000
-0.143156E-004  0.116873E-004  0.000000E+000
-0.138963E-004  0.114034E-004  0.000000E+000
-0.134794E-004  0.111225E-004  0.000000E+000
-0.130654E-004  0.108449E-004  0.000000E+000
-0.126547E-004  0.105710E-004  0.000000E+000
-0.221316E-004  0.846767E-005  0.000000E+000
-0.214468E-004  0.856148E-005  0.000000E+000
-0.223266E-004  0.814006E-005  0.000000E+000
-0.207574E-004  0.866067E-005  0.000000E+000
-0.225279E-004  0.781117E-005  0.000000E+000
-0.200638E-004  0.876544E-005  0.000000E+000
-0.227355E-004  0.748137E-005  0.000000E+000
-0.193660E-004  0.887598E-005  0.000000E+000
-0.229497E-004  0.715106E-005  0.000000E+000
-0.186644E-004  0.899246E-005  0.000000E+000
-0.231704E-004  0.682072E-005  0.000000E+000
-0.179593E-004  0.911497E-005  0.000000E+000
-0.233977E-004  0.649085E-005  0.000000E+000
-0.172511E-004  0.924356E-005  0.000000E+000
-0.236314E-004  0.616201E-005  0.000000E+000
-0.165402E-004  0.937821E-005  0.000000E+000
-0.238714E-004  0.583483E-005  0.000000E+000
-0.158271E-004  0.951884E-005  0.000000E+000
-0.241174E-004  0.550996E-005  0.000000E+000
-0.151123E-004  0.966524E-005  0.000000E+000
-0.243689E-004  0.518812E-005  0.000000E+000
-0.143964E-004  0.981713E-005  0.000000E+000
-0.246255E-004  0.487005E-005  0.000000E+000
-0.136799E-004  0.997411E-005  0.000000E+000
-0.248864E-004  0.455652E-005  0.000000E+000
-0.129635E-004  0.101357E-004  0.000000E+000
-0.251509E-004  0.424832E-005  0.000000E+000
-0.122479E-004  0.103011E-004  0.000000E+000
-0.343980E-004  0.688119E-005  0.000000E+000
-0.337173E-004  0.667496E-005  0.000000E+000
-0.330407E-004  0.646821E-005  0.000000E+000
-0.323686E-004  0.626092E-005  0.000000E+000
-0.317013E-004  0.605309E-005  0.000000E+000
-0.310393E-004  0.584470E-005  0.000000E+000
-0.303830E-004  0.563575E-005  0.000000E+000
-0.297329E-004  0.542624E-005  0.000000E+000
-0.290897E-004  0.521618E-005  0.000000E+000
-0.284540E-004  0.500557E-005  0.000000E+000
-0.278266E-004  0.479445E-005  0.000000E+000
-0.272082E-004  0.458287E-005  0.000000E+000
-0.265998E-004  0.437090E-005  0.000000E+000
-0.260027E-004  0.415864E-005  0.000000E+000
-0.254179E-004  0.394624E-005  0.000000E+000
-0.171251E-004  0.144466E-004  0.000000E+000
-0.167166E-004  0.141489E-004  0.000000E+000
-0.163088E-004  0.138527E-004  0.000000E+000
-0.159020E-004  0.135580E-004  0.000000E+000
-0.154962E-004  0.132650E-004  0.000000E+000
-0.150916E-004  0.129738E-004  0.000000E+000
-0.146883E-004  0.126847E-004  0.000000E+000